    4    4    1    1
  0.2863293E+02  0.7575157E-09  0.7575157E-09  0.7575157E-09  0.5000000E-15
  1.000000000000000E-004
  CAR 
 unknown system                          
     36    240     48
 
  0.0000000E+00  0.0000000E+00  0.0000000E+00  0.4166667E-02
    1      -10.964753   1.000000
    2      -10.964753   1.000000
    3       -7.992157   1.000000
    4       -7.992157   1.000000
    5       -1.814417   1.000000
    6       -1.814417   1.000000
    7       -1.257973   1.000000
    8       -1.257973   1.000000
    9       -1.021945   1.000000
   10       -1.021945   1.000000
   11        0.141827   1.000000
   12        0.141827   1.000000
   13        1.011202   1.000000
   14        1.011202   1.000000
   15        1.036919   1.000000
   16        1.036919   1.000000
   17        1.500435   1.000000
   18        1.500435   1.000000
   19        1.546042   1.000000
   20        1.546042   1.000000
   21        1.567498   1.000000
   22        1.567498   1.000000
   23        1.680877   1.000000
   24        1.680877   1.000000
   25        1.766867   1.000000
   26        1.766867   1.000000
   27        2.917466   1.000000
   28        2.917466   1.000000
   29        3.118331   1.000000
   30        3.118331   1.000000
   31        3.252291   1.000000
   32        3.252291   1.000000
   33        3.527937   1.000000
   34        3.527937   1.000000
   35        3.848632   1.000000
   36        3.848632   1.000000
   37        4.234766   0.000033
   38        4.234766   0.000033
   39        7.124763   0.000000
   40        7.124763   0.000000
   41        7.170047   0.000000
   42        7.170047   0.000000
   43        7.665378   0.000000
   44        7.665378   0.000000
   45        9.662243   0.000000
   46        9.662243   0.000000
   47        9.873539   0.000000
   48        9.873539   0.000000
 
  0.8474576E-02  0.8474576E-02  0.8474576E-02  0.4166667E-02
    1      -10.964748   1.000000
    2      -10.964748   1.000000
    3       -7.992189   1.000000
    4       -7.992189   1.000000
    5       -1.814263   1.000000
    6       -1.814263   1.000000
    7       -1.257888   1.000000
    8       -1.257888   1.000000
    9       -1.021946   1.000000
   10       -1.021946   1.000000
   11        0.141641   1.000000
   12        0.141641   1.000000
   13        1.011188   1.000000
   14        1.011188   1.000000
   15        1.036884   1.000000
   16        1.036884   1.000000
   17        1.500400   1.000000
   18        1.500400   1.000000
   19        1.546002   1.000000
   20        1.546002   1.000000
   21        1.567610   1.000000
   22        1.567610   1.000000
   23        1.680952   1.000000
   24        1.680952   1.000000
   25        1.766975   1.000000
   26        1.766975   1.000000
   27        2.917523   1.000000
   28        2.917523   1.000000
   29        3.118397   1.000000
   30        3.118397   1.000000
   31        3.250993   1.000000
   32        3.250993   1.000000
   33        3.528307   1.000000
   34        3.528307   1.000000
   35        3.849136   1.000000
   36        3.849136   1.000000
   37        4.234544   0.000034
   38        4.234544   0.000034
   39        7.125025   0.000000
   40        7.125025   0.000000
   41        7.170342   0.000000
   42        7.170342   0.000000
   43        7.665686   0.000000
   44        7.665686   0.000000
   45        9.658470   0.000000
   46        9.658470   0.000000
   47        9.877362   0.000000
   48        9.877362   0.000000
 
  0.1694915E-01  0.1694915E-01  0.1694915E-01  0.4166667E-02
    1      -10.964729   1.000000
    2      -10.964729   1.000000
    3       -7.992283   1.000000
    4       -7.992283   1.000000
    5       -1.813800   1.000000
    6       -1.813800   1.000000
    7       -1.257633   1.000000
    8       -1.257633   1.000000
    9       -1.021947   1.000000
   10       -1.021947   1.000000
   11        0.141082   1.000000
   12        0.141082   1.000000
   13        1.011144   1.000000
   14        1.011144   1.000000
   15        1.036780   1.000000
   16        1.036780   1.000000
   17        1.500295   1.000000
   18        1.500295   1.000000
   19        1.545885   1.000000
   20        1.545885   1.000000
   21        1.567943   1.000000
   22        1.567943   1.000000
   23        1.681175   1.000000
   24        1.681175   1.000000
   25        1.767299   1.000000
   26        1.767299   1.000000
   27        2.917696   1.000000
   28        2.917696   1.000000
   29        3.118596   1.000000
   30        3.118596   1.000000
   31        3.247142   1.000000
   32        3.247142   1.000000
   33        3.529374   1.000000
   34        3.529374   1.000000
   35        3.850646   1.000000
   36        3.850646   1.000000
   37        4.233879   0.000037
   38        4.233879   0.000037
   39        7.125809   0.000000
   40        7.125809   0.000000
   41        7.171228   0.000000
   42        7.171228   0.000000
   43        7.666606   0.000000
   44        7.666606   0.000000
   45        9.647897   0.000000
   46        9.647897   0.000000
   47        9.888085   0.000000
   48        9.888085   0.000000
 
  0.2542373E-01  0.2542373E-01  0.2542373E-01  0.4166667E-02
    1      -10.964698   1.000000
    2      -10.964698   1.000000
    3       -7.992449   1.000000
    4       -7.992449   1.000000
    5       -1.813059   1.000000
    6       -1.813059   1.000000
    7       -1.257265   1.000000
    8       -1.257265   1.000000
    9       -1.022023   1.000000
   10       -1.022023   1.000000
   11        0.139788   1.000000
   12        0.139788   1.000000
   13        1.011060   1.000000
   14        1.011060   1.000000
   15        1.036578   1.000000
   16        1.036578   1.000000
   17        1.500080   1.000000
   18        1.500080   1.000000
   19        1.545682   1.000000
   20        1.545682   1.000000
   21        1.568250   1.000000
   22        1.568250   1.000000
   23        1.681323   1.000000
   24        1.681323   1.000000
   25        1.767767   1.000000
   26        1.767767   1.000000
   27        2.917973   1.000000
   28        2.917973   1.000000
   29        3.118906   1.000000
   30        3.118906   1.000000
   31        3.240772   1.000000
   32        3.240772   1.000000
   33        3.531014   1.000000
   34        3.531014   1.000000
   35        3.853116   1.000000
   36        3.853116   1.000000
   37        4.232736   0.000042
   38        4.232736   0.000042
   39        7.127112   0.000000
   40        7.127112   0.000000
   41        7.172698   0.000000
   42        7.172698   0.000000
   43        7.668128   0.000000
   44        7.668128   0.000000
   45        9.632189   0.000000
   46        9.632189   0.000000
   47        9.904022   0.000000
   48        9.904022   0.000000
 
  0.3389831E-01  0.3389831E-01  0.3389831E-01  0.4166667E-02
    1      -10.964649   1.000000
    2      -10.964649   1.000000
    3       -7.992666   1.000000
    4       -7.992666   1.000000
    5       -1.811975   1.000000
    6       -1.811975   1.000000
    7       -1.256666   1.000000
    8       -1.256666   1.000000
    9       -1.022027   1.000000
   10       -1.022027   1.000000
   11        0.138592   1.000000
   12        0.138592   1.000000
   13        1.010959   1.000000
   14        1.010959   1.000000
   15        1.036338   1.000000
   16        1.036338   1.000000
   17        1.499839   1.000000
   18        1.499839   1.000000
   19        1.545442   1.000000
   20        1.545442   1.000000
   21        1.568985   1.000000
   22        1.568985   1.000000
   23        1.681829   1.000000
   24        1.681829   1.000000
   25        1.768544   1.000000
   26        1.768544   1.000000
   27        2.918375   1.000000
   28        2.918375   1.000000
   29        3.119369   1.000000
   30        3.119369   1.000000
   31        3.232304   1.000000
   32        3.232304   1.000000
   33        3.533059   1.000000
   34        3.533059   1.000000
   35        3.856635   1.000000
   36        3.856635   1.000000
   37        4.231194   0.000051
   38        4.231194   0.000051
   39        7.128934   0.000000
   40        7.128934   0.000000
   41        7.174756   0.000000
   42        7.174756   0.000000
   43        7.670279   0.000000
   44        7.670279   0.000000
   45        9.613035   0.000000
   46        9.613035   0.000000
   47        9.923536   0.000000
   48        9.923536   0.000000
 
  0.4237288E-01  0.4237288E-01  0.4237288E-01  0.4166667E-02
    1      -10.964586   1.000000
    2      -10.964586   1.000000
    3       -7.992942   1.000000
    4       -7.992942   1.000000
    5       -1.810601   1.000000
    6       -1.810601   1.000000
    7       -1.255898   1.000000
    8       -1.255898   1.000000
    9       -1.022031   1.000000
   10       -1.022031   1.000000
   11        0.136913   1.000000
   12        0.136913   1.000000
   13        1.010831   1.000000
   14        1.010831   1.000000
   15        1.036030   1.000000
   16        1.036030   1.000000
   17        1.499533   1.000000
   18        1.499533   1.000000
   19        1.545151   1.000000
   20        1.545151   1.000000
   21        1.569909   1.000000
   22        1.569909   1.000000
   23        1.682478   1.000000
   24        1.682478   1.000000
   25        1.769507   1.000000
   26        1.769507   1.000000
   27        2.918891   1.000000
   28        2.918891   1.000000
   29        3.119964   1.000000
   30        3.119964   1.000000
   31        3.221781   1.000000
   32        3.221781   1.000000
   33        3.535308   1.000000
   34        3.535308   1.000000
   35        3.861106   1.000000
   36        3.861106   1.000000
   37        4.229219   0.000064
   38        4.229219   0.000064
   39        7.131269   0.000000
   40        7.131269   0.000000
   41        7.177392   0.000000
   42        7.177392   0.000000
   43        7.673007   0.000000
   44        7.673007   0.000000
   45        9.591690   0.000000
   46        9.591690   0.000000
   47        9.945314   0.000000
   48        9.945314   0.000000
 
  0.5084746E-01  0.5084746E-01  0.5084746E-01  0.4166667E-02
    1      -10.964509   1.000000
    2      -10.964509   1.000000
    3       -7.993278   1.000000
    4       -7.993278   1.000000
    5       -1.808930   1.000000
    6       -1.808930   1.000000
    7       -1.254956   1.000000
    8       -1.254956   1.000000
    9       -1.022036   1.000000
   10       -1.022036   1.000000
   11        0.134864   1.000000
   12        0.134864   1.000000
   13        1.010674   1.000000
   14        1.010674   1.000000
   15        1.035655   1.000000
   16        1.035655   1.000000
   17        1.499163   1.000000
   18        1.499163   1.000000
   19        1.544825   1.000000
   20        1.544825   1.000000
   21        1.571006   1.000000
   22        1.571006   1.000000
   23        1.683267   1.000000
   24        1.683267   1.000000
   25        1.770685   1.000000
   26        1.770685   1.000000
   27        2.919523   1.000000
   28        2.919523   1.000000
   29        3.120690   1.000000
   30        3.120690   1.000000
   31        3.209482   1.000000
   32        3.209482   1.000000
   33        3.537558   1.000000
   34        3.537558   1.000000
   35        3.866523   1.000000
   36        3.866523   1.000000
   37        4.226818   0.000084
   38        4.226818   0.000084
   39        7.134110   0.000000
   40        7.134110   0.000000
   41        7.180598   0.000000
   42        7.180598   0.000000
   43        7.676319   0.000000
   44        7.676319   0.000000
   45        9.569021   0.000000
   46        9.569021   0.000000
   47        9.968505   0.000000
   48        9.968505   0.000000
 
  0.5932203E-01  0.5932203E-01  0.5932203E-01  0.4166667E-02
    1      -10.964418   1.000000
    2      -10.964418   1.000000
    3       -7.993673   1.000000
    4       -7.993673   1.000000
    5       -1.806969   1.000000
    6       -1.806969   1.000000
    7       -1.253836   1.000000
    8       -1.253836   1.000000
    9       -1.022040   1.000000
   10       -1.022040   1.000000
   11        0.132450   1.000000
   12        0.132450   1.000000
   13        1.010491   1.000000
   14        1.010491   1.000000
   15        1.035216   1.000000
   16        1.035216   1.000000
   17        1.498732   1.000000
   18        1.498732   1.000000
   19        1.544476   1.000000
   20        1.544476   1.000000
   21        1.572264   1.000000
   22        1.572264   1.000000
   23        1.684190   1.000000
   24        1.684190   1.000000
   25        1.772077   1.000000
   26        1.772077   1.000000
   27        2.920269   1.000000
   28        2.920269   1.000000
   29        3.121547   1.000000
   30        3.121547   1.000000
   31        3.195635   1.000000
   32        3.195635   1.000000
   33        3.539627   1.000000
   34        3.539627   1.000000
   35        3.872849   1.000000
   36        3.872849   1.000000
   37        4.223996   0.000115
   38        4.223996   0.000115
   39        7.137449   0.000000
   40        7.137449   0.000000
   41        7.184366   0.000000
   42        7.184366   0.000000
   43        7.680204   0.000000
   44        7.680204   0.000000
   45        9.545598   0.000000
   46        9.545598   0.000000
   47        9.992534   0.000000
   48        9.992534   0.000000
 
  0.6779661E-01  0.6779661E-01  0.6779661E-01  0.4166667E-02
    1      -10.964313   1.000000
    2      -10.964313   1.000000
    3       -7.994124   1.000000
    4       -7.994124   1.000000
    5       -1.804724   1.000000
    6       -1.804724   1.000000
    7       -1.252537   1.000000
    8       -1.252537   1.000000
    9       -1.022045   1.000000
   10       -1.022045   1.000000
   11        0.129670   1.000000
   12        0.129670   1.000000
   13        1.010280   1.000000
   14        1.010280   1.000000
   15        1.034715   1.000000
   16        1.034715   1.000000
   17        1.498244   1.000000
   18        1.498244   1.000000
   19        1.544114   1.000000
   20        1.544114   1.000000
   21        1.573669   1.000000
   22        1.573669   1.000000
   23        1.685245   1.000000
   24        1.685245   1.000000
   25        1.773683   1.000000
   26        1.773683   1.000000
   27        2.921130   1.000000
   28        2.921130   1.000000
   29        3.122534   1.000000
   30        3.122534   1.000000
   31        3.180451   1.000000
   32        3.180451   1.000000
   33        3.541363   1.000000
   34        3.541363   1.000000
   35        3.880039   1.000000
   36        3.880039   1.000000
   37        4.220761   0.000164
   38        4.220761   0.000164
   39        7.141276   0.000000
   40        7.141276   0.000000
   41        7.188685   0.000000
   42        7.188685   0.000000
   43        7.684646   0.000000
   44        7.684646   0.000000
   45        9.521809   0.000000
   46        9.521809   0.000000
   47       10.017012   0.000000
   48       10.017012   0.000000
 
  0.7627119E-01  0.7627119E-01  0.7627119E-01  0.4166667E-02
    1      -10.964204   1.000000
    2      -10.964204   1.000000
    3       -7.994633   1.000000
    4       -7.994633   1.000000
    5       -1.802204   1.000000
    6       -1.802204   1.000000
    7       -1.251057   1.000000
    8       -1.251057   1.000000
    9       -1.022053   1.000000
   10       -1.022053   1.000000
   11        0.126442   1.000000
   12        0.126442   1.000000
   13        1.010017   1.000000
   14        1.010017   1.000000
   15        1.034085   1.000000
   16        1.034085   1.000000
   17        1.497639   1.000000
   18        1.497639   1.000000
   19        1.543691   1.000000
   20        1.543691   1.000000
   21        1.575202   1.000000
   22        1.575202   1.000000
   23        1.686418   1.000000
   24        1.686418   1.000000
   25        1.775241   1.000000
   26        1.775241   1.000000
   27        2.922104   1.000000
   28        2.922104   1.000000
   29        3.123650   1.000000
   30        3.123650   1.000000
   31        3.164101   1.000000
   32        3.164101   1.000000
   33        3.542641   1.000000
   34        3.542641   1.000000
   35        3.888033   1.000000
   36        3.888033   1.000000
   37        4.217120   0.000243
   38        4.217120   0.000243
   39        7.145580   0.000000
   40        7.145580   0.000000
   41        7.193541   0.000000
   42        7.193541   0.000000
   43        7.689614   0.000000
   44        7.689614   0.000000
   45        9.497907   0.000000
   46        9.497907   0.000000
   47       10.041657   0.000000
   48       10.041657   0.000000
 
  0.8474576E-01  0.8474576E-01  0.8474576E-01  0.4166667E-02
    1      -10.964079   1.000000
    2      -10.964079   1.000000
    3       -7.995199   1.000000
    4       -7.995199   1.000000
    5       -1.799467   1.000000
    6       -1.799467   1.000000
    7       -1.249523   1.000000
    8       -1.249523   1.000000
    9       -1.022272   1.000000
   10       -1.022272   1.000000
   11        0.122889   1.000000
   12        0.122889   1.000000
   13        1.009751   1.000000
   14        1.009751   1.000000
   15        1.033457   1.000000
   16        1.033457   1.000000
   17        1.497040   1.000000
   18        1.497040   1.000000
   19        1.543319   1.000000
   20        1.543319   1.000000
   21        1.576608   1.000000
   22        1.576608   1.000000
   23        1.687459   1.000000
   24        1.687459   1.000000
   25        1.777251   1.000000
   26        1.777251   1.000000
   27        2.923141   1.000000
   28        2.923141   1.000000
   29        3.124821   1.000000
   30        3.124821   1.000000
   31        3.146738   1.000000
   32        3.146738   1.000000
   33        3.543357   1.000000
   34        3.543357   1.000000
   35        3.896743   1.000000
   36        3.896743   1.000000
   37        4.213067   0.000371
   38        4.213067   0.000371
   39        7.150345   0.000000
   40        7.150345   0.000000
   41        7.198917   0.000000
   42        7.198917   0.000000
   43        7.695109   0.000000
   44        7.695109   0.000000
   45        9.474125   0.000000
   46        9.474125   0.000000
   47       10.066270   0.000000
   48       10.066270   0.000000
 
  0.9322034E-01  0.9322034E-01  0.9322034E-01  0.4166667E-02
    1      -10.963936   1.000000
    2      -10.963936   1.000000
    3       -7.995815   1.000000
    4       -7.995815   1.000000
    5       -1.796424   1.000000
    6       -1.796424   1.000000
    7       -1.247671   1.000000
    8       -1.247671   1.000000
    9       -1.022283   1.000000
   10       -1.022283   1.000000
   11        0.119025   1.000000
   12        0.119025   1.000000
   13        1.009464   1.000000
   14        1.009464   1.000000
   15        1.032778   1.000000
   16        1.032778   1.000000
   17        1.496400   1.000000
   18        1.496400   1.000000
   19        1.542960   1.000000
   20        1.542960   1.000000
   21        1.578390   1.000000
   22        1.578390   1.000000
   23        1.688867   1.000000
   24        1.688867   1.000000
   25        1.779486   1.000000
   26        1.779486   1.000000
   27        2.924337   1.000000
   28        2.924337   1.000000
   29        3.126190   1.000000
   30        3.126190   1.000000
   31        3.128589   1.000000
   32        3.128589   1.000000
   33        3.543497   1.000000
   34        3.543497   1.000000
   35        3.906149   1.000000
   36        3.906149   1.000000
   37        4.208652   0.000579
   38        4.208652   0.000579
   39        7.155571   0.000000
   40        7.155571   0.000000
   41        7.204811   0.000000
   42        7.204811   0.000000
   43        7.701105   0.000000
   44        7.701105   0.000000
   45        9.450604   0.000000
   46        9.450604   0.000000
   47       10.090715   0.000000
   48       10.090715   0.000000
 
  0.1016949E+00  0.1016949E+00  0.1016949E+00  0.4166667E-02
    1      -10.963793   1.000000
    2      -10.963793   1.000000
    3       -7.996490   1.000000
    4       -7.996490   1.000000
    5       -1.793164   1.000000
    6       -1.793164   1.000000
    7       -1.245689   1.000000
    8       -1.245689   1.000000
    9       -1.022410   1.000000
   10       -1.022410   1.000000
   11        0.114670   1.000000
   12        0.114670   1.000000
   13        1.009000   1.000000
   14        1.009000   1.000000
   15        1.031980   1.000000
   16        1.031980   1.000000
   17        1.495590   1.000000
   18        1.495590   1.000000
   19        1.542449   1.000000
   20        1.542449   1.000000
   21        1.580209   1.000000
   22        1.580209   1.000000
   23        1.690331   1.000000
   24        1.690331   1.000000
   25        1.781852   1.000000
   26        1.781852   1.000000
   27        2.925563   1.000000
   28        2.925563   1.000000
   29        3.109665   1.000000
   30        3.109665   1.000000
   31        3.127612   1.000000
   32        3.127612   1.000000
   33        3.542995   1.000000
   34        3.542995   1.000000
   35        3.916139   1.000000
   36        3.916139   1.000000
   37        4.203860   0.000925
   38        4.203860   0.000925
   39        7.161218   0.000000
   40        7.161218   0.000000
   41        7.211176   0.000000
   42        7.211176   0.000000
   43        7.707567   0.000000
   44        7.707567   0.000000
   45        9.427464   0.000000
   46        9.427464   0.000000
   47       10.114855   0.000000
   48       10.114855   0.000000
 
  0.1101695E+00  0.1101695E+00  0.1101695E+00  0.4166667E-02
    1      -10.963625   1.000000
    2      -10.963625   1.000000
    3       -7.997206   1.000000
    4       -7.997206   1.000000
    5       -1.789637   1.000000
    6       -1.789637   1.000000
    7       -1.243446   1.000000
    8       -1.243446   1.000000
    9       -1.022420   1.000000
   10       -1.022420   1.000000
   11        0.110104   1.000000
   12        0.110104   1.000000
   13        1.008706   1.000000
   14        1.008706   1.000000
   15        1.031238   1.000000
   16        1.031238   1.000000
   17        1.494870   1.000000
   18        1.494870   1.000000
   19        1.542132   1.000000
   20        1.542132   1.000000
   21        1.582371   1.000000
   22        1.582371   1.000000
   23        1.692147   1.000000
   24        1.692147   1.000000
   25        1.784516   1.000000
   26        1.784516   1.000000
   27        2.926998   1.000000
   28        2.926998   1.000000
   29        3.090212   1.000000
   30        3.090212   1.000000
   31        3.129245   1.000000
   32        3.129245   1.000000
   33        3.541871   1.000000
   34        3.541871   1.000000
   35        3.926650   0.999999
   36        3.926650   0.999999
   37        4.198722   0.001499
   38        4.198722   0.001499
   39        7.167311   0.000000
   40        7.167311   0.000000
   41        7.218046   0.000000
   42        7.218046   0.000000
   43        7.714478   0.000000
   44        7.714478   0.000000
   45        9.404813   0.000000
   46        9.404813   0.000000
   47       10.138608   0.000000
   48       10.138608   0.000000
 
  0.1186441E+00  0.1186441E+00  0.1186441E+00  0.4166667E-02
    1      -10.963448   1.000000
    2      -10.963448   1.000000
    3       -7.997971   1.000000
    4       -7.997971   1.000000
    5       -1.785889   1.000000
    6       -1.785889   1.000000
    7       -1.241004   1.000000
    8       -1.241004   1.000000
    9       -1.022430   1.000000
   10       -1.022430   1.000000
   11        0.105191   1.000000
   12        0.105191   1.000000
   13        1.008347   1.000000
   14        1.008347   1.000000
   15        1.030402   1.000000
   16        1.030402   1.000000
   17        1.494113   1.000000
   18        1.494113   1.000000
   19        1.541813   1.000000
   20        1.541813   1.000000
   21        1.584461   1.000000
   22        1.584461   1.000000
   23        1.693853   1.000000
   24        1.693853   1.000000
   25        1.787379   1.000000
   26        1.787379   1.000000
   27        2.928503   1.000000
   28        2.928503   1.000000
   29        3.070261   1.000000
   30        3.070261   1.000000
   31        3.130987   1.000000
   32        3.130987   1.000000
   33        3.540112   1.000000
   34        3.540112   1.000000
   35        3.937592   0.999995
   36        3.937592   0.999995
   37        4.193236   0.002456
   38        4.193236   0.002456
   39        7.173807   0.000000
   40        7.173807   0.000000
   41        7.225366   0.000000
   42        7.225366   0.000000
   43        7.721801   0.000000
   44        7.721801   0.000000
   45        9.382734   0.000000
   46        9.382734   0.000000
   47       10.161877   0.000000
   48       10.161877   0.000000
 
  0.1271186E+00  0.1271186E+00  0.1271186E+00  0.4166667E-02
    1      -10.963260   1.000000
    2      -10.963260   1.000000
    3       -7.998782   1.000000
    4       -7.998782   1.000000
    5       -1.781931   1.000000
    6       -1.781931   1.000000
    7       -1.238357   1.000000
    8       -1.238357   1.000000
    9       -1.022441   1.000000
   10       -1.022441   1.000000
   11        0.099937   1.000000
   12        0.099937   1.000000
   13        1.007969   1.000000
   14        1.007969   1.000000
   15        1.029522   1.000000
   16        1.029522   1.000000
   17        1.493327   1.000000
   18        1.493327   1.000000
   19        1.541510   1.000000
   20        1.541510   1.000000
   21        1.586644   1.000000
   22        1.586644   1.000000
   23        1.695646   1.000000
   24        1.695646   1.000000
   25        1.790449   1.000000
   26        1.790449   1.000000
   27        2.930090   1.000000
   28        2.930090   1.000000
   29        3.049911   1.000000
   30        3.049911   1.000000
   31        3.132851   1.000000
   32        3.132851   1.000000
   33        3.537735   1.000000
   34        3.537735   1.000000
   35        3.948889   0.999979
   36        3.948889   0.999979
   37        4.187420   0.004045
   38        4.187420   0.004045
   39        7.180692   0.000000
   40        7.180692   0.000000
   41        7.233123   0.000000
   42        7.233123   0.000000
   43        7.729504   0.000000
   44        7.729504   0.000000
   45        9.361309   0.000000
   46        9.361309   0.000000
   47       10.184603   0.000000
   48       10.184603   0.000000
 
  0.1355932E+00  0.1355932E+00  0.1355932E+00  0.4166667E-02
    1      -10.963062   1.000000
    2      -10.963062   1.000000
    3       -7.999634   1.000000
    4       -7.999634   1.000000
    5       -1.777776   1.000000
    6       -1.777776   1.000000
    7       -1.235501   1.000000
    8       -1.235501   1.000000
    9       -1.022452   1.000000
   10       -1.022452   1.000000
   11        0.094348   1.000000
   12        0.094348   1.000000
   13        1.007571   1.000000
   14        1.007571   1.000000
   15        1.028600   1.000000
   16        1.028600   1.000000
   17        1.492516   1.000000
   18        1.492516   1.000000
   19        1.541226   1.000000
   20        1.541226   1.000000
   21        1.588913   1.000000
   22        1.588913   1.000000
   23        1.697519   1.000000
   24        1.697519   1.000000
   25        1.793724   1.000000
   26        1.793724   1.000000
   27        2.931728   1.000000
   28        2.931728   1.000000
   29        3.029266   1.000000
   30        3.029266   1.000000
   31        3.134833   1.000000
   32        3.134833   1.000000
   33        3.534763   1.000000
   34        3.534763   1.000000
   35        3.960467   0.999919
   36        3.960467   0.999919
   37        4.181291   0.006663
   38        4.181291   0.006663
   39        7.187948   0.000000
   40        7.187948   0.000000
   41        7.241296   0.000000
   42        7.241296   0.000000
   43        7.737551   0.000000
   44        7.737551   0.000000
   45        9.340609   0.000000
   46        9.340609   0.000000
   47       10.206728   0.000000
   48       10.206728   0.000000
 
  0.1440678E+00  0.1440678E+00  0.1440678E+00  0.4166667E-02
    1      -10.962854   1.000000
    2      -10.962854   1.000000
    3       -8.000527   1.000000
    4       -8.000527   1.000000
    5       -1.773440   1.000000
    6       -1.773440   1.000000
    7       -1.232430   1.000000
    8       -1.232430   1.000000
    9       -1.022463   1.000000
   10       -1.022463   1.000000
   11        0.088430   1.000000
   12        0.088430   1.000000
   13        1.007156   1.000000
   14        1.007156   1.000000
   15        1.027639   1.000000
   16        1.027639   1.000000
   17        1.491683   1.000000
   18        1.491683   1.000000
   19        1.540959   1.000000
   20        1.540959   1.000000
   21        1.591264   1.000000
   22        1.591264   1.000000
   23        1.699465   1.000000
   24        1.699465   1.000000
   25        1.797203   1.000000
   26        1.797203   1.000000
   27        2.933347   1.000000
   28        2.933347   1.000000
   29        3.008457   1.000000
   30        3.008457   1.000000
   31        3.136932   1.000000
   32        3.136932   1.000000
   33        3.531225   1.000000
   34        3.531225   1.000000
   35        3.972258   0.999706
   36        3.972258   0.999706
   37        4.174864   0.010919
   38        4.174864   0.010919
   39        7.195556   0.000000
   40        7.195556   0.000000
   41        7.249862   0.000000
   42        7.249862   0.000000
   43        7.745905   0.000000
   44        7.745905   0.000000
   45        9.320703   0.000000
   46        9.320703   0.000000
   47       10.228208   0.000000
   48       10.228208   0.000000
 
  0.1525424E+00  0.1525424E+00  0.1525424E+00  0.4166667E-02
    1      -10.962637   1.000000
    2      -10.962637   1.000000