 vasp.5.4.4.18Apr17-6-g9f103f2a35 (build Feb 22 2020 17:32:16) complex          
  
 executed on             LinuxIFC date 2021.02.23  20:21:16
 running on    1 total cores
 distrk:  each k-point on    1 cores,    1 groups
 distr:  one band on NCORES_PER_BAND=   1 cores,    1 groups


--------------------------------------------------------------------------------------------------------


 INCAR:
 POTCAR:    PAW_PBE Tm 23Dec2003                  
 POTCAR:    PAW_PBE Mg 13Apr2007                  
 POTCAR:    PAW_PBE Ga_d 06Jul2010                
 POTCAR:    PAW_PBE O 08Apr2002                   
 POTCAR:    PAW_PBE Tm 23Dec2003                  
   VRHFIN =Tm : [core=Xe4]                                                      
   LEXCH  = PE                                                                  
   EATOM  =  5985.3129 eV,  439.9081 Ry                                         
                                                                                
   TITEL  = PAW_PBE Tm 23Dec2003                                                
   LULTRA =        F    use ultrasoft PP ?                                      
   IUNSCR =        1    unscreen: 0-lin 1-nonlin 2-no                           
   RPACOR =    2.300    partial core radius                                     
   POMASS =  168.930; ZVAL   =   23.000    mass and valenz                      
   RCORE  =    2.800    outmost cutoff radius                                   
   RWIGS  =    3.000; RWIGS  =    1.588    wigner-seitz radius (au A)           
   ENMAX  =  257.420; ENMIN  =  193.065 eV                                      
   RCLOC  =    2.316    cutoff for local pot                                    
   LCOR   =        T    correct aug charges                                     
   LPAW   =        T    paw PP                                                  
   EAUG   =  582.125                                                            
   DEXC   =    0.000                                                            
   RMAX   =    2.857    core radius for proj-oper                               
   RAUG   =    1.300    factor for augmentation sphere                          
   RDEP   =    2.806    radius for radial grids                                 
   RDEPT  =    2.158    core radius for aug-charge                              
                                                                                
   Atomic configuration                                                         
   14 entries                                                                   
     n  l   j            E        occ.                                          
     1  0  0.50    -59275.1022   2.0000                                         
     2  0  0.50    -10005.4926   2.0000                                         
     2  1  1.50     -8833.0746   6.0000                                         
     3  0  0.50     -2255.0704   2.0000                                         
     3  1  1.50     -1900.2432   6.0000                                         
     3  2  2.50     -1462.8022  10.0000                                         
     4  0  0.50      -450.3872   2.0000                                         
     4  1  1.50      -333.7115   6.0000                                         
     4  2  2.50      -178.9038  10.0000                                         
     4  3  2.50        -9.5858  12.0000                                         
     5  0  0.50       -57.6404   2.0000                                         
     6  0  0.50        -4.4911   2.0000                                         
     5  1  1.50       -30.3726   6.0000                                         
     5  2  2.50        -1.9736   1.0000                                         
   Description                                                                  
     l       E           TYP  RCUT    TYP  RCUT                                 
     3     -9.5858148     23  2.800                                             
     3    -10.2043695     23  2.800                                             
     0    -57.6404438     23  2.400                                             
     0     -4.4911488     23  2.400                                             
     1    -30.3725964     23  2.400                                             
     1     13.6058260     23  2.400                                             
     2     -1.9736382     23  2.500                                             
     2     13.6058260     23  2.500                                             
  local pseudopotential read in
  partial core-charges read in
  partial kinetic energy density read in
  atomic valenz-charges read in
  non local Contribution for L=           3  read in
    real space projection operators read in
  non local Contribution for L=           3  read in
    real space projection operators read in
  non local Contribution for L=           0  read in
    real space projection operators read in
  non local Contribution for L=           0  read in
    real space projection operators read in
  non local Contribution for L=           1  read in
    real space projection operators read in
  non local Contribution for L=           1  read in
    real space projection operators read in
  non local Contribution for L=           2  read in
    real space projection operators read in
  non local Contribution for L=           2  read in
    real space projection operators read in
    PAW grid and wavefunctions read in
 
   number of l-projection  operators is LMAX  =           8
   number of lm-projection operators is LMMAX =          32
 
 POTCAR:    PAW_PBE Mg 13Apr2007                  
   VRHFIN =Mg: s2p0                                                             
   LEXCH  = PE                                                                  
   EATOM  =    23.0369 eV,    1.6932 Ry                                         
                                                                                
   TITEL  = PAW_PBE Mg 13Apr2007                                                
   LULTRA =        F    use ultrasoft PP ?                                      
   IUNSCR =        1    unscreen: 0-lin 1-nonlin 2-no                           
   RPACOR =    1.500    partial core radius                                     
   POMASS =   24.305; ZVAL   =    2.000    mass and valenz                      
   RCORE  =    2.000    outmost cutoff radius                                   
   RWIGS  =    2.880; RWIGS  =    1.524    wigner-seitz radius (au A)           
   ENMAX  =  126.143; ENMIN  =   94.607 eV                                      
   RCLOC  =    1.506    cutoff for local pot                                    
   LCOR   =        T    correct aug charges                                     
   LPAW   =        T    paw PP                                                  
   EAUG   =  454.734                                                            
   DEXC   =    0.000                                                            
   RMAX   =    2.045    core radius for proj-oper                               
   RAUG   =    1.300    factor for augmentation sphere                          
   RDEP   =    2.025    radius for radial grids                                 
   RDEPT  =    1.942    core radius for aug-charge                              
                                                                                
   Atomic configuration                                                         
    6 entries                                                                   
     n  l   j            E        occ.                                          
     1  0  0.50     -1259.6230   2.0000                                         
     2  0  0.50       -79.8442   2.0000                                         
     2  1  1.50       -46.6121   6.0000                                         
     3  0  0.50        -4.7055   2.0000                                         
     3  1  0.50        -1.3660   0.0000                                         
     3  2  1.50        -1.3606   0.0000                                         
   Description                                                                  
     l       E           TYP  RCUT    TYP  RCUT                                 
     0     -4.7054661     23  2.000                                             
     0     27.2116520     23  2.000                                             
     1      1.3605826     23  2.000                                             
     1     27.2116520     23  2.000                                             
     2     -1.3605826     23  2.000                                             
  local pseudopotential read in
  partial core-charges read in
  partial kinetic energy density read in
  atomic valenz-charges read in
  non local Contribution for L=           0  read in
    real space projection operators read in
  non local Contribution for L=           0  read in
    real space projection operators read in
  non local Contribution for L=           1  read in
    real space projection operators read in
  non local Contribution for L=           1  read in
    real space projection operators read in
  non local Contribution for L=           2  read in
    real space projection operators read in
    PAW grid and wavefunctions read in
 
   number of l-projection  operators is LMAX  =           5
   number of lm-projection operators is LMMAX =          13
 
 POTCAR:    PAW_PBE Ga_d 06Jul2010                
   VRHFIN =Ga: s2p1                                                             
   LEXCH  = PE                                                                  
   EATOM  =  2148.8298 eV,  157.9345 Ry                                         
                                                                                
   TITEL  = PAW_PBE Ga_d 06Jul2010                                              
   LULTRA =        F    use ultrasoft PP ?                                      
   IUNSCR =        1    unscreen: 0-lin 1-nonlin 2-no                           
   RPACOR =    1.700    partial core radius                                     
   POMASS =   69.723; ZVAL   =   13.000    mass and valenz                      
   RCORE  =    2.300    outmost cutoff radius                                   
   RWIGS  =    2.300; RWIGS  =    1.217    wigner-seitz radius (au A)           
   ENMAX  =  282.691; ENMIN  =  212.018 eV                                      
   ICORE  =        3    local potential                                         
   LCOR   =        T    correct aug charges                                     
   LPAW   =        T    paw PP                                                  
   EAUG   =  490.690                                                            
   DEXC   =    0.000                                                            
   RMAX   =    2.341    core radius for proj-oper                               
   RAUG   =    1.300    factor for augmentation sphere                          
   RDEP   =    2.413    radius for radial grids                                 
   RDEPT  =    1.856    core radius for aug-charge                              
                                                                                
   Atomic configuration                                                         
    9 entries                                                                   
     n  l   j            E        occ.                                          
     1  0  0.50    -10228.7831   2.0000                                         
     2  0  0.50     -1262.1604   2.0000                                         
     2  1  1.50     -1098.6333   6.0000                                         
     3  0  0.50      -148.1110   2.0000                                         
     3  1  1.50       -98.8436   6.0000                                         
     3  2  2.50       -19.1549  10.0000                                         
     4  0  0.50        -8.9483   2.0000                                         
     4  1  0.50        -2.5791   1.0000                                         
     4  3  2.50        -2.7416   0.0000                                         
   Description                                                                  
     l       E           TYP  RCUT    TYP  RCUT                                 
     2    -19.1549037     23  2.300                                             
     2     -5.4423304     23  2.300                                             
     0     -8.9483111     23  2.300                                             
     0     68.0291300     23  2.300                                             
     1     -2.5790802     23  2.100                                             
     1     81.6349560     23  2.300                                             
     3      6.8029130     23  2.300                                             
  local pseudopotential read in
  partial core-charges read in
  partial kinetic energy density read in
  atomic valenz-charges read in
  non local Contribution for L=           2  read in
    real space projection operators read in
  non local Contribution for L=           2  read in
    real space projection operators read in
  non local Contribution for L=           0  read in
    real space projection operators read in
  non local Contribution for L=           0  read in
    real space projection operators read in
  non local Contribution for L=           1  read in
    real space projection operators read in
  non local Contribution for L=           1  read in
    real space projection operators read in
    PAW grid and wavefunctions read in
 
   number of l-projection  operators is LMAX  =           6
   number of lm-projection operators is LMMAX =          18
 
 POTCAR:    PAW_PBE O 08Apr2002                   
   VRHFIN =O: s2p4                                                              
   LEXCH  = PE                                                                  
   EATOM  =   432.3788 eV,   31.7789 Ry                                         
                                                                                
   TITEL  = PAW_PBE O 08Apr2002                                                 
   LULTRA =        F    use ultrasoft PP ?                                      
   IUNSCR =        1    unscreen: 0-lin 1-nonlin 2-no                           
   RPACOR =    1.200    partial core radius                                     
   POMASS =   16.000; ZVAL   =    6.000    mass and valenz                      
   RCORE  =    1.520    outmost cutoff radius                                   
   RWIGS  =    1.550; RWIGS  =    0.820    wigner-seitz radius (au A)           
   ENMAX  =  400.000; ENMIN  =  300.000 eV                                      
   ICORE  =        2    local potential                                         
   LCOR   =        T    correct aug charges                                     
   LPAW   =        T    paw PP                                                  
   EAUG   =  605.392                                                            
   DEXC   =    0.000                                                            
   RMAX   =    1.553    core radius for proj-oper                               
   RAUG   =    1.300    factor for augmentation sphere                          
   RDEP   =    1.550    radius for radial grids                                 
   RDEPT  =    1.329    core radius for aug-charge                              
                                                                                
   Atomic configuration                                                         
    4 entries                                                                   
     n  l   j            E        occ.                                          
     1  0  0.50      -514.6923   2.0000                                         
     2  0  0.50       -23.9615   2.0000                                         
     2  1  0.50        -9.0305   4.0000                                         
     3  2  1.50        -9.5241   0.0000                                         
   Description                                                                  
     l       E           TYP  RCUT    TYP  RCUT                                 
     0    -23.9615318     23  1.200                                             
     0     -9.5240782     23  1.200                                             
     1     -9.0304911     23  1.520                                             
     1      8.1634956     23  1.520                                             
     2     -9.5240782      7  1.500                                             
  local pseudopotential read in
  partial core-charges read in
  partial kinetic energy density read in
  kinetic energy density of atom read in
  atomic valenz-charges read in
  non local Contribution for L=           0  read in
    real space projection operators read in
  non local Contribution for L=           0  read in
    real space projection operators read in
  non local Contribution for L=           1  read in
    real space projection operators read in
  non local Contribution for L=           1  read in
    real space projection operators read in
    PAW grid and wavefunctions read in
 
   number of l-projection  operators is LMAX  =           4
   number of lm-projection operators is LMMAX =           8
 
  PAW_PBE Tm 23Dec2003                  :
 energy of atom  1       EATOM=-5985.3129
 kinetic energy error for atom=    0.0027 (will be added to EATOM!!)
  PAW_PBE Mg 13Apr2007                  :
 energy of atom  2       EATOM=  -23.0369
 kinetic energy error for atom=    0.0000 (will be added to EATOM!!)
  PAW_PBE Ga_d 06Jul2010                :
 energy of atom  3       EATOM=-2148.8298
 kinetic energy error for atom=    0.0026 (will be added to EATOM!!)
  PAW_PBE O 08Apr2002                   :
 energy of atom  4       EATOM= -432.3788
 kinetic energy error for atom=    0.0224 (will be added to EATOM!!)
 
 
 POSCAR: POSCAR Gen by MATLAB                    
  positions in direct lattice
  velocities in cartesian coordinates
  No initial velocities read in
 exchange correlation table for  LEXCH =        8
   RHO(1)=    0.500       N(1)  =     2000
   RHO(2)=  100.500       N(2)  =     4000
 


--------------------------------------------------------------------------------------------------------


 ion  position               nearest neighbor table
   1  0.000  0.000  0.000-  10 2.25   7 2.25  10 2.25   7 2.25   7 2.25  10 2.25   3 3.58   3 3.58
                             3 3.58
   2  0.000  0.000  0.500-   9 2.25   8 2.25   9 2.25   8 2.25   8 2.25   9 2.25   4 3.58   4 3.58
                             4 3.58
   3  0.429  0.215  0.178-   7 1.92  13 1.99  13 1.99  13 1.99  11 2.16   5 3.12   5 3.12   5 3.12
                             1 3.58   1 3.58   1 3.58
   4  0.429  0.215  0.678-   8 1.92  14 1.99  14 1.99  14 1.99  12 2.16   6 3.12   6 3.12   6 3.12
                             2 3.58   2 3.58   2 3.58
   5  0.571  0.785  0.322-   9 1.92  11 1.99  11 1.99  11 1.99  13 2.16   3 3.12   3 3.12   3 3.12

   6  0.571  0.785  0.822-  10 1.92  12 1.99  12 1.99  12 1.99  14 2.16   4 3.12   4 3.12   4 3.12

   7  0.582  0.291  0.063-   3 1.92   1 2.25   1 2.25   1 2.25
   8  0.582  0.291  0.563-   4 1.92   2 2.25   2 2.25   2 2.25
   9  0.418  0.709  0.437-   5 1.92   2 2.25   2 2.25   2 2.25
  10  0.418  0.709  0.937-   6 1.92   1 2.25   1 2.25   1 2.25
  11  0.258  0.129  0.307-   5 1.99   5 1.99   5 1.99   3 2.16
  12  0.258  0.129  0.807-   6 1.99   6 1.99   6 1.99   4 2.16
  13  0.742  0.871  0.193-   3 1.99   3 1.99   3 1.99   5 2.16
  14  0.742  0.871  0.693-   4 1.99   4 1.99   4 1.99   6 2.16
 
  LATTYP: Found a trigonal (rhomboedric) cell.
 ALAT       =    16.8955183820
 COS(alpha) =     0.9794410149
  
  Lattice vectors:
  
 A1 = (   0.0000000000,  -1.9780020000, -16.7793340000)
 A2 = (  -1.7130000000,   0.9890010000, -16.7793340000)
 A3 = (   1.7130000000,   0.9890010000, -16.7793340000)


Analysis of symmetry for initial positions (statically):
=====================================================================
 Subroutine PRICEL returns following result:
 
  LATTYP: Found a trigonal (rhomboedric) cell.
 ALAT       =     8.6196870215
 COS(alpha) =     0.9210118903
  
  Lattice vectors:
  
 A1 = (  -1.7130000000,  -0.9890010000,  -8.3896670000)
 A2 = (   0.0000000000,   1.9780020000,  -8.3896670000)
 A3 = (   1.7130000000,  -0.9890010000,  -8.3896670000)
 
   2 primitive cells build up your supercell.
 

 Routine SETGRP: Setting up the symmetry group for a 
 trigonal (rhombohedral) supercell.


 Subroutine GETGRP returns: Found  6 space group operations
 (whereof  6 operations were pure point group operations)
 out of a pool of 12 trial point group operations.


The static configuration has the point symmetry C_3v.


Analysis of symmetry for dynamics (positions and initial velocities):
=====================================================================
 Subroutine PRICEL returns following result:
 
  LATTYP: Found a trigonal (rhomboedric) cell.
 ALAT       =     8.6196870215
 COS(alpha) =     0.9210118903
  
  Lattice vectors:
  
 A1 = (  -1.7130000000,  -0.9890010000,  -8.3896670000)
 A2 = (   0.0000000000,   1.9780020000,  -8.3896670000)
 A3 = (   1.7130000000,  -0.9890010000,  -8.3896670000)
 
   2 primitive cells build up your supercell.
 

 Routine SETGRP: Setting up the symmetry group for a 
 trigonal (rhombohedral) supercell.


 Subroutine GETGRP returns: Found  6 space group operations
 (whereof  6 operations were pure point group operations)
 out of a pool of 12 trial point group operations.


The dynamic configuration has the point symmetry C_3v.


Analysis of structural, dynamic, and magnetic symmetry:
=====================================================================
 Subroutine PRICEL returns following result:
 
  LATTYP: Found a trigonal (rhomboedric) cell.
 ALAT       =     8.6196870215
 COS(alpha) =     0.9210118903
  
  Lattice vectors:
  
 A1 = (  -1.7130000000,  -0.9890010000,  -8.3896670000)
 A2 = (   0.0000000000,   1.9780020000,  -8.3896670000)
 A3 = (   1.7130000000,  -0.9890010000,  -8.3896670000)
 
   2 primitive cells build up your supercell.
 

 Routine SETGRP: Setting up the symmetry group for a 
 trigonal (rhombohedral) supercell.


 Subroutine GETGRP returns: Found  6 space group operations
 (whereof  6 operations were pure point group operations)
 out of a pool of 12 trial point group operations.


The magnetic configuration has the point symmetry C_3v.


 Subroutine INISYM returns: Found  6 space group operations
 (whereof  6 operations are pure point group operations),
 and found     2 'primitive' translations

 
 

Automatic generation of k-mesh.
 generate k-points for:    5    5    1
Space group operators:
 irot       det(A)        alpha          n_x          n_y          n_z        tau_x        tau_y        tau_z
    1     1.000000     0.000000     1.000000     0.000000     0.000000     0.000000     0.000000     0.000000
    2    -1.000000   180.000000     1.000000    -0.000000     0.000000     0.000000     0.000000     0.000000
    3     1.000000   120.000000    -0.000000     0.000000     1.000000     0.000000     0.000000     0.000000
    4    -1.000000   180.000000    -0.500000     0.866025    -0.000000     0.000000     0.000000     0.000000
    5     1.000000   120.000000     0.000000     0.000000    -1.000000     0.000000     0.000000     0.000000
    6    -1.000000   180.000000     0.500000     0.866025     0.000000     0.000000     0.000000     0.000000
 
 Subroutine IBZKPT returns following result:
 ===========================================
 
 Found      9 irreducible k-points:
 
 Following reciprocal coordinates:
            Coordinates               Weight
  0.000000  0.000000  0.000000      1.000000
  0.200000  0.000000 -0.000000      2.000000
  0.400000  0.000000 -0.000000      2.000000
  0.000000  0.200000 -0.000000      4.000000
  0.200000  0.200000 -0.000000      4.000000
  0.400000  0.200000 -0.000000      2.000000
  0.000000  0.400000 -0.000000      4.000000
  0.200000  0.400000 -0.000000      4.000000
 -0.200000  0.400000  0.000000      2.000000
 
 Following cartesian coordinates:
            Coordinates               Weight
  0.000000  0.000000  0.000000      1.000000
  0.058377  0.033704 -0.015893      2.000000
  0.116754  0.067408 -0.031785      2.000000
  0.000000  0.067408 -0.007946      4.000000
  0.058377  0.101112 -0.023839      4.000000
  0.116754  0.134816 -0.039731      2.000000
  0.000000  0.134816 -0.015893      4.000000
  0.058377  0.168520 -0.031785      4.000000
 -0.058377  0.101112  0.000000      2.000000
 


--------------------------------------------------------------------------------------------------------




 Dimension of arrays:
   k-points           NKPTS =      9   k-points in BZ     NKDIM =      9   number of bands    NBANDS=     88
   number of dos      NEDOS =    301   number of ions     NIONS =     14
   non local maximal  LDIM  =      8   non local SUM 2l+1 LMDIM =     32
   total plane-waves  NPLWV =  38400
   max r-space proj   IRMAX =      1   max aug-charges    IRDMAX=  94654
   dimension x,y,z NGX =    20 NGY =   20 NGZ =   96
   dimension x,y,z NGXF=    40 NGYF=   40 NGZF=  192
   support grid    NGXF=    80 NGYF=   80 NGZF=  384
   ions per type =               2   2   2   8
   NGX,Y,Z   is equivalent  to a cutoff of   9.70,  9.70,  9.26 a.u.
   NGXF,Y,Z  is equivalent  to a cutoff of  19.41, 19.41, 18.52 a.u.

 SYSTEM =  TMGO-nosoc_col-U=3-FM-221               
 POSCAR =  POSCAR Gen by MATLAB                    

 Startparameter for this run:
   NWRITE =      2    write-flag & timer
   PREC   = normal    normal or accurate (medium, high low for compatibility)
   ISTART =      0    job   : 0-new  1-cont  2-samecut
   ICHARG =      2    charge: 1-file 2-atom 10-const
   ISPIN  =      2    spin polarized calculation?
   LNONCOLLINEAR =      F non collinear calculations
   LSORBIT =      F    spin-orbit coupling
   INIWAV =      1    electr: 0-lowe 1-rand  2-diag
   LASPH  =      F    aspherical Exc in radial PAW
   METAGGA=      F    non-selfconsistent MetaGGA calc.

 Electronic Relaxation 1
   ENCUT  =  500.0 eV  36.75 Ry    6.06 a.u.   6.25  6.25 31.43*2*pi/ulx,y,z
   ENINI  =  500.0     initial cutoff
   ENAUG  =  605.4 eV  augmentation charge cutoff
   NELM   =    500;   NELMIN=  2; NELMDL=  0     # of ELM steps 
   EDIFF  = 0.1E-05   stopping-criterion for ELM
   LREAL  =      F    real-space projection
   NLSPLINE    = F    spline interpolate recip. space projectors
   LCOMPAT=      F    compatible to vasp.4.4
   GGA_COMPAT  = F    GGA compatible to vasp.4.4-vasp.4.6
   LMAXPAW     = -100 max onsite density
   LMAXMIX     =    6 max onsite mixed and CHGCAR
   VOSKOWN=      1    Vosko Wilk Nusair interpolation
   ROPT   =    0.00000   0.00000   0.00000   0.00000
 Ionic relaxation
   EDIFFG = 0.1E-04   stopping-criterion for IOM
   NSW    =      0    number of steps for IOM
   NBLOCK =      1;   KBLOCK =      1    inner block; outer block 
   IBRION =     -1    ionic relax: 0-MD 1-quasi-New 2-CG
   NFREE  =      0    steps in history (QN), initial steepest desc. (CG)
   ISIF   =      2    stress and relaxation
   IWAVPR =     10    prediction:  0-non 1-charg 2-wave 3-comb
   ISYM   =      2    0-nonsym 1-usesym 2-fastsym
   LCORR  =      T    Harris-Foulkes like correction to forces

   POTIM  = 0.5000    time-step for ionic-motion
   TEIN   =    0.0    initial temperature
   TEBEG  =    0.0;   TEEND  =   0.0 temperature during run
   SMASS  =  -3.00    Nose mass-parameter (am)
   estimated Nose-frequenzy (Omega)   =  0.10E-29 period in steps =****** mass=  -0.268E-27a.u.
   SCALEE = 1.0000    scale energy and forces
   NPACO  =    256;   APACO  = 16.0  distance and # of slots for P.C.
   PSTRESS=    0.0 pullay stress

  Mass of Ions in am
   POMASS = 168.93 24.30 69.72 16.00
  Ionic Valenz
   ZVAL   =  23.00  2.00 13.00  6.00
  Atomic Wigner-Seitz radii
   RWIGS  =  -1.00 -1.00 -1.00 -1.00
  virtual crystal weights 
   VCA    =   1.00  1.00  1.00  1.00
   NELECT =     124.0000    total number of electrons
   NUPDOWN=      -1.0000    fix difference up-down

 DOS related values:
   EMIN   =  10.00;   EMAX   =-10.00  energy-range for DOS
   EFERMI =   0.00
   ISMEAR =     0;   SIGMA  =   0.05  broadening in eV -4-tet -1-fermi 0-gaus

 Electronic relaxation 2 (details)
   IALGO  =     38    algorithm
   LDIAG  =      T    sub-space diagonalisation (order eigenvalues)
   LSUBROT=      F    optimize rotation matrix (better conditioning)
   TURBO    =      0    0=normal 1=particle mesh
   IRESTART =      0    0=no restart 2=restart with 2 vectors
   NREBOOT  =      0    no. of reboots
   NMIN     =      0    reboot dimension
   EREF     =   0.00    reference energy to select bands
   IMIX   =      4    mixing-type and parameters
     AMIX     =   0.40;   BMIX     =  1.00
     AMIX_MAG =   1.60;   BMIX_MAG =  1.00
     AMIN     =   0.10
     WC   =   100.;   INIMIX=   1;  MIXPRE=   1;  MAXMIX= -45

 Intra band minimization:
   WEIMIN = 0.0000     energy-eigenvalue tresh-hold
   EBREAK =  0.28E-08  absolut break condition
   DEPER  =   0.30     relativ break condition  

   TIME   =   0.40     timestep for ELM

  volume/ion in A,a.u.               =      12.18        82.21
  Fermi-wavevector in a.u.,A,eV,Ry     =   1.472048  2.781768 29.482818  2.166926
  Thomas-Fermi vector in A             =   2.587110
 
 Write flags
   LWAVE        =      T    write WAVECAR
   LDOWNSAMPLE  =      F    k-point downsampling of WAVECAR
   LCHARG       =      T    write CHGCAR
   LVTOT        =      F    write LOCPOT, total local potential
   LVHAR        =      F    write LOCPOT, Hartree potential only
   LELF         =      F    write electronic localiz. function (ELF)
   LORBIT       =     11    0 simple, 1 ext, 2 COOP (PROOUT), +10 PAW based schemes


 Dipole corrections
   LMONO  =      F    monopole corrections only (constant potential shift)
   LDIPOL =      F    correct potential (dipole corrections)
   IDIPOL =      0    1-x, 2-y, 3-z, 4-all directions 
   EPSILON=  1.0000000 bulk dielectric constant

 LDA+U is selected, type is set to LDAUTYPE =  2
   angular momentum for each species LDAUL =     3   -1   -1   -1
   U (eV)           for each species LDAUU =   3.0  0.0  0.0  0.0
   J (eV)           for each species LDAUJ =   0.0  0.0  0.0  0.0
 Exchange correlation treatment:
   GGA     =    --    GGA type
   LEXCH   =     8    internal setting for exchange type
   VOSKOWN=      1    Vosko Wilk Nusair interpolation
   LHFCALC =     F    Hartree Fock is set to
   LHFONE  =     F    Hartree Fock one center treatment
   AEXX    =    0.0000 exact exchange contribution

 Linear response parameters
   LEPSILON=     F    determine dielectric tensor
   LRPA    =     F    only Hartree local field effects (RPA)
   LNABLA  =     F    use nabla operator in PAW spheres
   LVEL    =     F    velocity operator in full k-point grid
   LINTERFAST=   F  fast interpolation
   KINTER  =     0    interpolate to denser k-point grid
   CSHIFT  =0.1000    complex shift for real part using Kramers Kronig
   OMEGAMAX=  -1.0    maximum frequency
   DEG_THRESHOLD= 0.2000000E-02 threshold for treating states as degnerate
   RTIME   =   -0.100 relaxation time in fs
  (WPLASMAI=    0.000 imaginary part of plasma frequency in eV, 0.658/RTIME)
   DFIELD  = 0.0000000 0.0000000 0.0000000 field for delta impulse in time
 
 Orbital magnetization related:
   ORBITALMAG=     F  switch on orbital magnetization
   LCHIMAG   =     F  perturbation theory with respect to B field
   DQ        =  0.001000  dq finite difference perturbation B field
   LLRAUG    =     F  two centre corrections for induced B field



--------------------------------------------------------------------------------------------------------


 Static calculation
 charge density and potential will be updated during run
 spin polarized calculation
 Variant of blocked Davidson
 Davidson routine will perform the subspace rotation
 perform sub-space diagonalisation
    after iterative eigenvector-optimisation
 modified Broyden-mixing scheme, WC =      100.0
 initial mixing is a Kerker type mixing with AMIX =  0.4000 and BMIX =      1.0000
 Hartree-type preconditioning will be used
 using additional bands           26
 reciprocal scheme for non local part
 use partial core corrections
 calculate Harris-corrections to forces 
   (improved forces if not selfconsistent)
 use gradient corrections 
 use of overlap-Matrix (Vanderbilt PP)
 Gauss-broadening in eV      SIGMA  =   0.05


--------------------------------------------------------------------------------------------------------


  energy-cutoff  :      500.00
  volume of cell :      170.56
      direct lattice vectors                 reciprocal lattice vectors
     3.426000000  0.000000000  0.000000000     0.291885581  0.168520221 -0.079462828
    -1.713000000  2.967003000  0.000000000     0.000000000  0.337040441 -0.039731414
     3.426000000  1.978002000 16.779334000     0.000000000  0.000000000  0.059597121

  length of vectors
     3.426000000  3.425999971 17.239374043     0.346281097  0.339374195  0.059597121


 
 k-points in units of 2pi/SCALE and weight: read from INCAR                         
   0.00000000  0.00000000  0.00000000       0.040
   0.05837712  0.03370404 -0.01589257       0.080
   0.11675423  0.06740809 -0.03178513       0.080
   0.00000000  0.06740809 -0.00794628       0.160
   0.05837712  0.10111213 -0.02383885       0.160
   0.11675423  0.13481618 -0.03973141       0.080
   0.00000000  0.13481618 -0.01589257       0.160
   0.05837712  0.16852022 -0.03178513       0.160
  -0.05837712  0.10111213  0.00000000       0.080
 
 k-points in reciprocal lattice and weights: read from INCAR                         
   0.00000000  0.00000000  0.00000000       0.040
   0.20000000  0.00000000 -0.00000000       0.080
   0.40000000  0.00000000 -0.00000000       0.080
   0.00000000  0.20000000 -0.00000000       0.160
   0.20000000  0.20000000 -0.00000000       0.160
   0.40000000  0.20000000 -0.00000000       0.080
   0.00000000  0.40000000 -0.00000000       0.160
   0.20000000  0.40000000 -0.00000000       0.160
  -0.20000000  0.40000000  0.00000000       0.080
 
 position of ions in fractional coordinates (direct lattice) 
   0.00000000  0.00000000  0.00000000
   0.00000000  0.00000000  0.50000000
   0.42940000  0.21470000  0.17795000
   0.42940000  0.21470000  0.67795000
   0.57060000  0.78530000  0.32205000
   0.57060000  0.78530000  0.82205000
   0.58214000  0.29107000  0.06339500
   0.58214000  0.29107000  0.56339500
   0.41786000  0.70893000  0.43660500
   0.41786000  0.70893000  0.93660500
   0.25762000  0.12881000  0.30678500
   0.25762000  0.12881000  0.80678500
   0.74238000  0.87119000  0.19321500
   0.74238000  0.87119000  0.69321500
 
 position of ions in cartesian coordinates  (Angst):
   0.00000000  0.00000000  0.00000000
   1.71300000  0.98900100  8.38966700
   1.71300000  0.98900100  2.98588249
   3.42600000  1.97800200 11.37554949
   1.71300000  2.96700300  5.40378451
   3.42600000  3.95600400 13.79345151
   1.71300000  0.98900100  1.06372588
   3.42600000  1.97800200  9.45339288
   1.71300000  2.96700300  7.32594112
   3.42600000  3.95600400 15.71560812
   1.71300000  0.98900100  5.14764798
   3.42600000  1.97800200 13.53731498
   1.71300000  2.96700300  3.24201902
   3.42600000  3.95600400 11.63168602
 


--------------------------------------------------------------------------------------------------------


 k-point  1 :   0.0000 0.0000 0.0000  plane waves:    4369
 k-point  2 :   0.2000 0.0000-0.0000  plane waves:    4319
 k-point  3 :   0.4000 0.0000-0.0000  plane waves:    4334
 k-point  4 :   0.0000 0.2000-0.0000  plane waves:    4322
 k-point  5 :   0.2000 0.2000-0.0000  plane waves:    4327
 k-point  6 :   0.4000 0.2000-0.0000  plane waves:    4328
 k-point  7 :   0.0000 0.4000-0.0000  plane waves:    4347
 k-point  8 :   0.2000 0.4000-0.0000  plane waves:    4319
 k-point  9 :  -0.2000 0.4000 0.0000  plane waves:    4330

 maximum and minimum number of plane-waves per node :      4369     4319

 maximum number of plane-waves:      4369
 maximum index in each direction: 
   IXMAX=    6   IYMAX=    6   IZMAX=   31
   IXMIN=   -6   IYMIN=   -6   IZMIN=  -31


 serial   3D FFT for wavefunctions
 parallel 3D FFT for charge:
    minimum data exchange during FFTs selected (reduces bandwidth)


 total amount of memory used by VASP MPI-rank0   266106. kBytes
=======================================================================

   base      :      30000. kBytes
   nonl-proj :      41243. kBytes
   fftplans  :      45112. kBytes
   grid      :      32832. kBytes
   one-center:       1376. kBytes
   wavefun   :     115543. kBytes
 
     INWAV:  cpu time    0.0001: real time    0.0004
 Broyden mixing: mesh for mixing (old mesh)
   NGX = 13   NGY = 13   NGZ = 63
  (NGX  = 40   NGY  = 40   NGZ  =192)
  gives a total of  10647 points

 initial charge density was supplied:
 charge density of overlapping atoms calculated
 number of electron     124.0000000 magnetization      28.0000000
 keeping initial charge density in first step


--------------------------------------------------------------------------------------------------------


 Maximum index for augmentation-charges        91625 (set IRDMAX)


--------------------------------------------------------------------------------------------------------


 First call to EWALD:  gamma=   0.320
 Maximum number of real-space cells 5x 5x 1
 Maximum number of reciprocal cells 2x 2x 8

    FEWALD:  cpu time    0.0020: real time    0.0020


--------------------------------------- Iteration      1(   1)  ---------------------------------------


    POTLOK:  cpu time    0.3201: real time    0.3224
    SETDIJ:  cpu time    0.6625: real time    0.6641
     EDDAV:  cpu time   29.0154: real time   29.0868
       DOS:  cpu time    0.0028: real time    0.0028
    --------------------------------------------
      LOOP:  cpu time   30.0008: real time   30.0761

 eigenvalue-minimisations  :  5232
 total energy-change (2. order) : 0.1698223E+04  (-0.4602684E+04)
 number of electron     124.0000000 magnetization      28.0000000
 augmentation part      124.0000000 magnetization      28.0000000

 Free energy of the ion-electron system (eV)
  ---------------------------------------------------
  alpha Z        PSCENC =       832.02900754
  Ewald energy   TEWEN  =    -10839.25072494
  -Hartree energ DENC   =     -7223.22032894
  -exchange      EXHF   =         0.00000000
  -V(xc)+E(xc)   XCENC  =       537.50255005
  PAW double counting   =     15564.42797160   -17697.06005759
  entropy T*S    EENTRO =        -0.00382628
  eigenvalues    EBANDS =       750.59851734
  atomic energy  EATOM  =     19773.19996240
  Solvation  Ediel_sol  =         0.00000000
  ---------------------------------------------------
  free energy    TOTEN  =      1698.22307119 eV

  energy without entropy =     1698.22689748  energy(sigma->0) =     1698.22498434


--------------------------------------------------------------------------------------------------------




--------------------------------------- Iteration      1(   2)  ---------------------------------------


     EDDAV:  cpu time   21.2769: real time   21.3278
       DOS:  cpu time    0.0024: real time    0.0024
    --------------------------------------------
      LOOP:  cpu time   21.2794: real time   21.3303

 eigenvalue-minimisations  :  3680
 total energy-change (2. order) :-0.1310286E+04  (-0.1135500E+04)
 number of electron     124.0000000 magnetization      28.0000000
 augmentation part      124.0000000 magnetization      28.0000000

 Free energy of the ion-electron system (eV)
  ---------------------------------------------------
  alpha Z        PSCENC =       832.02900754
  Ewald energy   TEWEN  =    -10839.25072494
  -Hartree energ DENC   =     -7223.22032894
  -exchange      EXHF   =         0.00000000
  -V(xc)+E(xc)   XCENC  =       537.50255005
  PAW double counting   =     15564.42797160   -17697.06005759
  entropy T*S    EENTRO =        -0.00165070
  eigenvalues    EBANDS =      -559.68988518
  atomic energy  EATOM  =     19773.19996240
  Solvation  Ediel_sol  =         0.00000000
  ---------------------------------------------------
  free energy    TOTEN  =       387.93684426 eV

  energy without entropy =      387.93849496  energy(sigma->0) =      387.93766961


--------------------------------------------------------------------------------------------------------




--------------------------------------- Iteration      1(   3)  ---------------------------------------


     EDDAV:  cpu time   20.6967: real time   20.7454
       DOS:  cpu time    0.0030: real time    0.0030
    --------------------------------------------
      LOOP:  cpu time   20.6997: real time   20.7485

 eigenvalue-minimisations  :  3592
 total energy-change (2. order) :-0.3902524E+03  (-0.3587824E+03)
 number of electron     124.0000000 magnetization      28.0000000
 augmentation part      124.0000000 magnetization      28.0000000

 Free energy of the ion-electron system (eV)
  ---------------------------------------------------
  alpha Z        PSCENC =       832.02900754
  Ewald energy   TEWEN  =    -10839.25072494
  -Hartree energ DENC   =     -7223.22032894
  -exchange      EXHF   =         0.00000000
  -V(xc)+E(xc)   XCENC  =       537.50255005
  PAW double counting   =     15564.42797160   -17697.06005759
  entropy T*S    EENTRO =        -0.01876834
  eigenvalues    EBANDS =      -949.92512255
  atomic energy  EATOM  =     19773.19996240
  Solvation  Ediel_sol  =         0.00000000
  ---------------------------------------------------
  free energy    TOTEN  =        -2.31551075 eV

  energy without entropy =       -2.29674241  energy(sigma->0) =       -2.30612658


--------------------------------------------------------------------------------------------------------




--------------------------------------- Iteration      1(   4)  ---------------------------------------


     EDDAV:  cpu time   22.0259: real time   22.0782
       DOS:  cpu time    0.0030: real time    0.0030
    --------------------------------------------
      LOOP:  cpu time   22.0289: real time   22.0812

 eigenvalue-minimisations  :  3928
 total energy-change (2. order) :-0.5502736E+02  (-0.5390101E+02)
 number of electron     124.0000000 magnetization      28.0000000
 augmentation part      124.0000000 magnetization      28.0000000

 Free energy of the ion-electron system (eV)
  ---------------------------------------------------
  alpha Z        PSCENC =       832.02900754
  Ewald energy   TEWEN  =    -10839.25072494
  -Hartree energ DENC   =     -7223.22032894
  -exchange      EXHF   =         0.00000000
  -V(xc)+E(xc)   XCENC  =       537.50255005
  PAW double counting   =     15564.42797160   -17697.06005759
  entropy T*S    EENTRO =        -0.04699931
  eigenvalues    EBANDS =     -1004.92425386
  atomic energy  EATOM  =     19773.19996240
  Solvation  Ediel_sol  =         0.00000000
  ---------------------------------------------------
  free energy    TOTEN  =       -57.34287304 eV

  energy without entropy =      -57.29587373  energy(sigma->0) =      -57.31937338


--------------------------------------------------------------------------------------------------------




--------------------------------------- Iteration      1(   5)  ---------------------------------------


     EDDAV:  cpu time   26.4890: real time   26.5514
       DOS:  cpu time    0.0029: real time    0.0029
    CHARGE:  cpu time    1.3171: real time    1.3202
    MIXING:  cpu time    0.0073: real time    0.0073
    --------------------------------------------
      LOOP:  cpu time   27.8163: real time   27.8819

 eigenvalue-minimisations  :  4904
 total energy-change (2. order) :-0.3006408E+01  (-0.2983640E+01)
 number of electron     124.0000006 magnetization      23.2777081
 augmentation part       49.7946757 magnetization      22.7630642

 Broyden mixing:
  rms(total) = 0.48328E+01    rms(broyden)= 0.48324E+01
  rms(prec ) = 0.50341E+01
  weight for this iteration     100.00

 Free energy of the ion-electron system (eV)
  ---------------------------------------------------
  alpha Z        PSCENC =       832.02900754
  Ewald energy   TEWEN  =    -10839.25072494
  -Hartree energ DENC   =     -7223.22032894
  -exchange      EXHF   =         0.00000000
  -V(xc)+E(xc)   XCENC  =       537.50255005
  PAW double counting   =     15564.42797160   -17697.06005759
  entropy T*S    EENTRO =        -0.05024180
  eigenvalues    EBANDS =     -1007.92741940
  atomic energy  EATOM  =     19773.19996240
  Solvation  Ediel_sol  =         0.00000000
  ---------------------------------------------------
  free energy    TOTEN  =       -60.34928107 eV

  energy without entropy =      -60.29903926  energy(sigma->0) =      -60.32416017


--------------------------------------------------------------------------------------------------------




--------------------------------------- Iteration      1(   6)  ---------------------------------------


    POTLOK:  cpu time    0.3261: real time    0.3272
    SETDIJ:  cpu time    0.6429: real time    0.6444
     EDDAV:  cpu time   23.4759: real time   23.5311
       DOS:  cpu time    0.0024: real time    0.0024
    CHARGE:  cpu time    1.2239: real time    1.2268
    MIXING:  cpu time    0.0095: real time    0.0096
    --------------------------------------------
      LOOP:  cpu time   25.6807: real time   25.7416

 eigenvalue-minimisations  :  4576
 total energy-change (2. order) : 0.2077276E+02  (-0.1013601E+02)
 number of electron     124.0000007 magnetization      21.1079644
 augmentation part       51.6783129 magnetization      16.9357517

 Broyden mixing:
  rms(total) = 0.38114E+01    rms(broyden)= 0.38108E+01
  rms(prec ) = 0.44017E+01
  weight for this iteration     100.00

 eigenvalues of (default mixing * dielectric matrix)
  average eigenvalue GAMMA=   0.7285
  0.7285

 Free energy of the ion-electron system (eV)
  ---------------------------------------------------
  alpha Z        PSCENC =       832.02900754
  Ewald energy   TEWEN  =    -10839.25072494
  -Hartree energ DENC   =     -7306.60835855
  -exchange      EXHF   =         0.00000000
  -V(xc)+E(xc)   XCENC  =       543.98468811
  PAW double counting   =     16130.99325037   -18290.12398446
  entropy T*S    EENTRO =        -0.00283060
  eigenvalues    EBANDS =      -883.79753537
  atomic energy  EATOM  =     19773.19996240
  Solvation  Ediel_sol  =         0.00000000
  ---------------------------------------------------
  free energy    TOTEN  =       -39.57652548 eV

  energy without entropy =      -39.57369488  energy(sigma->0) =      -39.57511018


--------------------------------------------------------------------------------------------------------




--------------------------------------- Iteration      1(   7)  ---------------------------------------


    POTLOK:  cpu time    0.3072: real time    0.3079
    SETDIJ:  cpu time    0.6379: real time    0.6395
     EDDAV:  cpu time   23.6748: real time   23.7306
       DOS:  cpu time    0.0027: real time    0.0027
    CHARGE:  cpu time    1.4554: real time    1.4589
    MIXING:  cpu time    0.0104: real time    0.0104
    --------------------------------------------
      LOOP:  cpu time   26.0885: real time   26.1500

 eigenvalue-minimisations  :  4464
 total energy-change (2. order) :-0.2804694E+02  (-0.1773815E+02)
 number of electron     124.0000005 magnetization      20.6659526
 augmentation part       37.1201842 magnetization      11.7305884

 Broyden mixing:
  rms(total) = 0.92862E+01    rms(broyden)= 0.92860E+01
  rms(prec ) = 0.10569E+02
  weight for this iteration     100.00

 eigenvalues of (default mixing * dielectric matrix)
  average eigenvalue GAMMA=   0.4091
  0.6063  0.2119

 Free energy of the ion-electron system (eV)
  ---------------------------------------------------
  alpha Z        PSCENC =       832.02900754
  Ewald energy   TEWEN  =    -10839.25072494
  -Hartree energ DENC   =     -7496.52827301
  -exchange      EXHF   =         0.00000000
  -V(xc)+E(xc)   XCENC  =       544.08218649
  PAW double counting   =     16701.05079929   -18996.03780228
  entropy T*S    EENTRO =        -0.00545045
  eigenvalues    EBANDS =      -586.16317520
  atomic energy  EATOM  =     19773.19996240
  Solvation  Ediel_sol  =         0.00000000
  ---------------------------------------------------
  free energy    TOTEN  =       -67.62347015 eV

  energy without entropy =      -67.61801970  energy(sigma->0) =      -67.62074492


--------------------------------------------------------------------------------------------------------




--------------------------------------- Iteration      1(   8)  ---------------------------------------


    POTLOK:  cpu time    0.3322: real time    0.3333
    SETDIJ:  cpu time    0.6976: real time    0.6992
     EDDAV:  cpu time   23.9992: real time   24.0557
       DOS:  cpu time    0.0028: real time    0.0028
    CHARGE:  cpu time    1.3996: real time    1.4029
    MIXING:  cpu time    0.0100: real time    0.0101
    --------------------------------------------
      LOOP:  cpu time   26.4413: real time   26.5039

 eigenvalue-minimisations  :  4568
 total energy-change (2. order) : 0.4483744E+01  (-0.2492288E+02)
 number of electron     124.0000007 magnetization      19.3237263
 augmentation part       51.3437015 magnetization      15.5176747

 Broyden mixing:
  rms(total) = 0.37453E+01    rms(broyden)= 0.37444E+01
  rms(prec ) = 0.40577E+01
  weight for this iteration     100.00

 eigenvalues of (default mixing * dielectric matrix)
  average eigenvalue GAMMA=   0.4258
  0.7758  0.3629  0.1386

 Free energy of the ion-electron system (eV)
  ---------------------------------------------------
  alpha Z        PSCENC =       832.02900754
  Ewald energy   TEWEN  =    -10839.25072494
  -Hartree energ DENC   =     -7329.26544346
  -exchange      EXHF   =         0.00000000
  -V(xc)+E(xc)   XCENC  =       531.02817992
  PAW double counting   =     16551.68763931   -18730.85376585
  entropy T*S    EENTRO =        -0.00317615
  eigenvalues    EBANDS =      -851.71140540
  atomic energy  EATOM  =     19773.19996240
  Solvation  Ediel_sol  =         0.00000000
  ---------------------------------------------------
  free energy    TOTEN  =       -63.13972663 eV

  energy without entropy =      -63.13655048  energy(sigma->0) =      -63.13813856


--------------------------------------------------------------------------------------------------------




--------------------------------------- Iteration      1(   9)  ---------------------------------------


    POTLOK:  cpu time    0.3492: real time    0.3500
    SETDIJ:  cpu time    0.7196: real time    0.7213
     EDDAV:  cpu time   24.7485: real time   24.8068
       DOS:  cpu time    0.0028: real time    0.0028
    CHARGE:  cpu time    1.2641: real time    1.2671
    MIXING:  cpu time    0.0085: real time    0.0085
    --------------------------------------------
      LOOP:  cpu time   27.0927: real time   27.1566

 eigenvalue-minimisations  :  4664
 total energy-change (2. order) : 0.3687946E+01  (-0.1821840E+01)
 number of electron     124.0000006 magnetization      17.8105426
 augmentation part       48.9431262 magnetization      16.1816370

 Broyden mixing:
  rms(total) = 0.15823E+01    rms(broyden)= 0.15814E+01
  rms(prec ) = 0.16676E+01
  weight for this iteration     100.00

 eigenvalues of (default mixing * dielectric matrix)
  average eigenvalue GAMMA=   0.4512
  0.8882  0.3883  0.3883  0.1399

 Free energy of the ion-electron system (eV)
  ---------------------------------------------------
  alpha Z        PSCENC =       832.02900754
  Ewald energy   TEWEN  =    -10839.25072494
  -Hartree energ DENC   =     -7358.95989458
  -exchange      EXHF   =         0.00000000
  -V(xc)+E(xc)   XCENC  =       529.09348459
  PAW double counting   =     16770.23414354   -18985.03086575
  entropy T*S    EENTRO =        -0.01658356
  eigenvalues    EBANDS =      -780.75030971
  atomic energy  EATOM  =     19773.19996240
  Solvation  Ediel_sol  =         0.00000000
  ---------------------------------------------------
  free energy    TOTEN  =       -59.45178045 eV

  energy without entropy =      -59.43519690  energy(sigma->0) =      -59.44348867


--------------------------------------------------------------------------------------------------------




--------------------------------------- Iteration      1(  10)  ---------------------------------------


    POTLOK:  cpu time    0.2967: real time    0.2977
    SETDIJ:  cpu time    0.6452: real time    0.6467
     EDDAV:  cpu time   25.8660: real time   25.9273
       DOS:  cpu time    0.0027: real time    0.0027
    CHARGE:  cpu time    1.3037: real time    1.3067
    MIXING:  cpu time    0.0101: real time    0.0101
    --------------------------------------------
      LOOP:  cpu time   28.1242: real time   28.1912

 eigenvalue-minimisations  :  4880
 total energy-change (2. order) :-0.9040986E+00  (-0.6142135E+00)
 number of electron     124.0000006 magnetization      12.9736512
 augmentation part       48.3641424 magnetization      11.6677695

 Broyden mixing:
  rms(total) = 0.12954E+01    rms(broyden)= 0.12953E+01
  rms(prec ) = 0.13436E+01
  weight for this iteration     100.00

 eigenvalues of (default mixing * dielectric matrix)
  average eigenvalue GAMMA=   0.5850
  1.0573  0.6602  0.6602  0.4044  0.1430

 Free energy of the ion-electron system (eV)
  ---------------------------------------------------
  alpha Z        PSCENC =       832.02900754
  Ewald energy   TEWEN  =    -10839.25072494
  -Hartree energ DENC   =     -7372.01915731
  -exchange      EXHF   =         0.00000000
  -V(xc)+E(xc)   XCENC  =       529.73161836
  PAW double counting   =     16916.49615136   -19142.22922561
  entropy T*S    EENTRO =        -0.01426714
  eigenvalues    EBANDS =      -758.29924373
  atomic energy  EATOM  =     19773.19996240
  Solvation  Ediel_sol  =         0.00000000
  ---------------------------------------------------
  free energy    TOTEN  =       -60.35587906 eV

  energy without entropy =      -60.34161192  energy(sigma->0) =      -60.34874549


--------------------------------------------------------------------------------------------------------




--------------------------------------- Iteration      1(  11)  ---------------------------------------


    POTLOK:  cpu time    0.3480: real time    0.3489
    SETDIJ:  cpu time    0.7936: real time    0.7956
     EDDAV:  cpu time   26.0451: real time   26.1066
       DOS:  cpu time    0.0028: real time    0.0028
    CHARGE:  cpu time    1.2861: real time    1.2892
    MIXING:  cpu time    0.0129: real time    0.0129
    --------------------------------------------
      LOOP:  cpu time   28.4884: real time   28.5560

 eigenvalue-minimisations  :  4912
 total energy-change (2. order) :-0.5641169E+01  (-0.7299429E+00)
 number of electron     124.0000006 magnetization       8.6601708
 augmentation part       47.6494236 magnetization       7.0827879

 Broyden mixing:
  rms(total) = 0.94601E+00    rms(broyden)= 0.94588E+00
  rms(prec ) = 0.10159E+01
  weight for this iteration     100.00

 eigenvalues of (default mixing * dielectric matrix)
  average eigenvalue GAMMA=   0.8185
  2.4814  0.8275  0.1426  0.5116  0.5116  0.4363

 Free energy of the ion-electron system (eV)
  ---------------------------------------------------
  alpha Z        PSCENC =       832.02900754
  Ewald energy   TEWEN  =    -10839.25072494
  -Hartree energ DENC   =     -7381.59396037
  -exchange      EXHF   =         0.00000000
  -V(xc)+E(xc)   XCENC  =       528.24875628
  PAW double counting   =     17257.59566648   -19490.87285687
  entropy T*S    EENTRO =        -0.02555590
  eigenvalues    EBANDS =      -745.32734277
  atomic energy  EATOM  =     19773.19996240
  Solvation  Ediel_sol  =         0.00000000
  ---------------------------------------------------
  free energy    TOTEN  =       -65.99704815 eV

  energy without entropy =      -65.97149224  energy(sigma->0) =      -65.98427020


--------------------------------------------------------------------------------------------------------




--------------------------------------- Iteration      1(  12)  ---------------------------------------


    POTLOK:  cpu time    0.3011: real time    0.3024
    SETDIJ:  cpu time    0.6683: real time    0.6698
     EDDAV:  cpu time   23.9833: real time   24.0401
       DOS:  cpu time    0.0027: real time    0.0027
    CHARGE:  cpu time    1.5497: real time    1.5534
    MIXING:  cpu time    0.0135: real time    0.0135
    --------------------------------------------
      LOOP:  cpu time   26.5186: real time   26.5819

 eigenvalue-minimisations  :  4416
 total energy-change (2. order) :-0.1375467E+02  (-0.1207266E+01)
 number of electron     124.0000006 magnetization       7.6693519
 augmentation part       47.9281334 magnetization       6.6900398

 Broyden mixing:
  rms(total) = 0.64996E+00    rms(broyden)= 0.64986E+00
  rms(prec ) = 0.68762E+00
  weight for this iteration     100.00

 eigenvalues of (default mixing * dielectric matrix)
  average eigenvalue GAMMA=   0.8645
  2.6141  0.9599  0.6988  0.6988  0.1426  0.4687  0.4687

 Free energy of the ion-electron system (eV)
  ---------------------------------------------------
  alpha Z        PSCENC =       832.02900754
  Ewald energy   TEWEN  =    -10839.25072494
  -Hartree energ DENC   =     -7364.42287128
  -exchange      EXHF   =         0.00000000
  -V(xc)+E(xc)   XCENC  =       522.01221866
  PAW double counting   =     17469.93556958   -19700.44550168
  entropy T*S    EENTRO =        -0.01766830
  eigenvalues    EBANDS =      -772.79170991
  atomic energy  EATOM  =     19773.19996240
  Solvation  Ediel_sol  =         0.00000000
  ---------------------------------------------------
  free energy    TOTEN  =       -79.75171792 eV

  energy without entropy =      -79.73404962  energy(sigma->0) =      -79.74288377


--------------------------------------------------------------------------------------------------------




--------------------------------------- Iteration      1(  13)  ---------------------------------------


    POTLOK:  cpu time    0.3379: real time    0.3387
    SETDIJ:  cpu time    0.7205: real time    0.7222
     EDDAV:  cpu time   23.3468: real time   23.4018
       DOS:  cpu time    0.0026: real time    0.0026
    CHARGE:  cpu time    1.3503: real time    1.3535
    MIXING:  cpu time    0.0154: real time    0.0154
    --------------------------------------------
      LOOP:  cpu time   25.7734: real time   25.8342

 eigenvalue-minimisations  :  4512
 total energy-change (2. order) :-0.8896619E+01  (-0.8892678E+00)
 number of electron     124.0000006 magnetization       6.3813231
 augmentation part       48.3470482 magnetization       5.3829647

 Broyden mixing:
  rms(total) = 0.52843E+00    rms(broyden)= 0.52832E+00
  rms(prec ) = 0.55590E+00
  weight for this iteration     100.00

 eigenvalues of (default mixing * dielectric matrix)
  average eigenvalue GAMMA=   0.9865
  2.6334  2.0096  0.8028  0.8028  0.1426  0.5187  0.5187  0.4633

 Free energy of the ion-electron system (eV)
  ---------------------------------------------------
  alpha Z        PSCENC =       832.02900754
  Ewald energy   TEWEN  =    -10839.25072494
  -Hartree energ DENC   =     -7323.66033606
  -exchange      EXHF   =         0.00000000
  -V(xc)+E(xc)   XCENC  =       516.49552378
  PAW double counting   =     17336.60851055   -19549.96099063
  entropy T*S    EENTRO =        -0.00986059
  eigenvalues    EBANDS =      -834.09942905
  atomic energy  EATOM  =     19773.19996240
  Solvation  Ediel_sol  =         0.00000000
  ---------------------------------------------------
  free energy    TOTEN  =       -88.64833699 eV

  energy without entropy =      -88.63847640  energy(sigma->0) =      -88.64340669


--------------------------------------------------------------------------------------------------------




--------------------------------------- Iteration      1(  14)  ---------------------------------------


    POTLOK:  cpu time    0.3925: real time    0.3938
    SETDIJ:  cpu time    0.8489: real time    0.8513
     EDDAV:  cpu time   24.9331: real time   24.9932
       DOS:  cpu time    0.0029: real time    0.0029
    CHARGE:  cpu time    1.4807: real time    1.4843
    MIXING:  cpu time    0.0183: real time    0.0184
    --------------------------------------------
      LOOP:  cpu time   27.6765: real time   27.7439

 eigenvalue-minimisations  :  4344
 total energy-change (2. order) :-0.6151968E+01  (-0.8618540E+00)
 number of electron     124.0000006 magnetization       5.5880855
 augmentation part       48.9403771 magnetization       4.7850520

 Broyden mixing:
  rms(total) = 0.87410E+00    rms(broyden)= 0.87401E+00
  rms(prec ) = 0.98043E+00
  weight for this iteration     100.00

 eigenvalues of (default mixing * dielectric matrix)
  average eigenvalue GAMMA=   1.0019
  3.2130  1.5413  1.0054  1.0054  0.1426  0.5943  0.5943  0.4604  0.4604

 Free energy of the ion-electron system (eV)
  ---------------------------------------------------
  alpha Z        PSCENC =       832.02900754
  Ewald energy   TEWEN  =    -10839.25072494
  -Hartree energ DENC   =     -7290.04481643
  -exchange      EXHF   =         0.00000000
  -V(xc)+E(xc)   XCENC  =       512.62099681
  PAW double counting   =     17218.62061448   -19421.22509783
  entropy T*S    EENTRO =        -0.01954851
  eigenvalues    EBANDS =      -880.73069902
  atomic energy  EATOM  =     19773.19996240
  Solvation  Ediel_sol  =         0.00000000
  ---------------------------------------------------
  free energy    TOTEN  =       -94.80030549 eV

  energy without entropy =      -94.78075698  energy(sigma->0) =      -94.79053123


--------------------------------------------------------------------------------------------------------




--------------------------------------- Iteration      1(  15)  ---------------------------------------


    POTLOK:  cpu time    0.3340: real time    0.3347
    SETDIJ:  cpu time    0.7110: real time    0.7127
     EDDAV:  cpu time   23.3252: real time   23.3802
       DOS:  cpu time    0.0026: real time    0.0026
    CHARGE:  cpu time    1.4238: real time    1.4272
    MIXING:  cpu time    0.0192: real time    0.0193
    --------------------------------------------
      LOOP:  cpu time   25.8158: real time   25.8767

 eigenvalue-minimisations  :  4360
 total energy-change (2. order) :-0.7762540E+00  (-0.2539855E+00)
 number of electron     124.0000006 magnetization       5.0831810
 augmentation part       48.3873647 magnetization       4.4202090

 Broyden mixing:
  rms(total) = 0.33349E+00    rms(broyden)= 0.33333E+00
  rms(prec ) = 0.35801E+00
  weight for this iteration     100.00

 eigenvalues of (default mixing * dielectric matrix)
  average eigenvalue GAMMA=   1.0465
  3.6715  1.5364  1.5364  0.9300  0.1426  0.6302  0.6302  0.4709  0.4709  0.4457

 Free energy of the ion-electron system (eV)
  ---------------------------------------------------
  alpha Z        PSCENC =       832.02900754
  Ewald energy   TEWEN  =    -10839.25072494
  -Hartree energ DENC   =     -7292.81388811
  -exchange      EXHF   =         0.00000000
  -V(xc)+E(xc)   XCENC  =       512.09472703
  PAW double counting   =     17231.55305603   -19441.54524605
  entropy T*S    EENTRO =        -0.00958298
  eigenvalues    EBANDS =      -870.83387044
  atomic energy  EATOM  =     19773.19996240
  Solvation  Ediel_sol  =         0.00000000
  ---------------------------------------------------
  free energy    TOTEN  =       -95.57655952 eV

  energy without entropy =      -95.56697653  energy(sigma->0) =      -95.57176802


--------------------------------------------------------------------------------------------------------




--------------------------------------- Iteration      1(  16)  ---------------------------------------


    POTLOK:  cpu time    0.3483: real time    0.3495
    SETDIJ:  cpu time    0.7421: real time    0.7439
     EDDAV:  cpu time   25.0527: real time   25.1117
       DOS:  cpu time    0.0029: real time    0.0029
    CHARGE:  cpu time    1.2662: real time    1.2692
    MIXING:  cpu time    0.0143: real time    0.0144
    --------------------------------------------
      LOOP:  cpu time   27.4264: real time   27.4915

 eigenvalue-minimisations  :  4584
 total energy-change (2. order) :-0.2997973E+00  (-0.6564340E-01)
 number of electron     124.0000006 magnetization       4.6431321
 augmentation part       48.2231517 magnetization       4.2107397

 Broyden mixing:
  rms(total) = 0.15669E+00    rms(broyden)= 0.15663E+00
  rms(prec ) = 0.16715E+00
  weight for this iteration     100.00

 eigenvalues of (default mixing * dielectric matrix)
  average eigenvalue GAMMA=   1.0814
  4.1312  1.4521  1.4521  0.9563  0.9563  0.1426  0.6182  0.6182  0.6350  0.4666
  0.4666

 Free energy of the ion-electron system (eV)
  ---------------------------------------------------
  alpha Z        PSCENC =       832.02900754
  Ewald energy   TEWEN  =    -10839.25072494
  -Hartree energ DENC   =     -7290.65099336
  -exchange      EXHF   =         0.00000000
  -V(xc)+E(xc)   XCENC  =       511.81943007
  PAW double counting   =     17202.64169142   -19415.45844579
  entropy T*S    EENTRO =        -0.01398338
  eigenvalues    EBANDS =      -870.19230077
  atomic energy  EATOM  =     19773.19996240
  Solvation  Ediel_sol  =         0.00000000
  ---------------------------------------------------
  free energy    TOTEN  =       -95.87635680 eV

  energy without entropy =      -95.86237341  energy(sigma->0) =      -95.86936511


--------------------------------------------------------------------------------------------------------




--------------------------------------- Iteration      1(  17)  ---------------------------------------


    POTLOK:  cpu time    0.2915: real time    0.2922
    SETDIJ:  cpu time    0.6230: real time    0.6245
     EDDAV:  cpu time   27.9122: real time   27.9780
       DOS:  cpu time    0.0029: real time    0.0029
    CHARGE:  cpu time    1.3904: real time    1.3937
    MIXING:  cpu time    0.0199: real time    0.0199
    --------------------------------------------
      LOOP:  cpu time   30.2400: real time   30.3113

 eigenvalue-minimisations  :  5024
 total energy-change (2. order) :-0.3243766E-01  (-0.1304065E-01)
 number of electron     124.0000006 magnetization       4.2491296
 augmentation part       48.1990146 magnetization       3.8554992

 Broyden mixing:
  rms(total) = 0.10419E+00    rms(broyden)= 0.10418E+00
  rms(prec ) = 0.11392E+00
  weight for this iteration     100.00

 eigenvalues of (default mixing * dielectric matrix)
  average eigenvalue GAMMA=   1.1518
  4.6159  1.6359  1.6359  1.1902  1.1902  0.1426  0.6505  0.6505  0.4718  0.4718
  0.5831  0.5831

 Free energy of the ion-electron system (eV)
  ---------------------------------------------------
  alpha Z        PSCENC =       832.02900754
  Ewald energy   TEWEN  =    -10839.25072494
  -Hartree energ DENC   =     -7289.87287895
  -exchange      EXHF   =         0.00000000
  -V(xc)+E(xc)   XCENC  =       511.85651715
  PAW double counting   =     17180.62039107   -19394.83432813
  entropy T*S    EENTRO =        -0.01516124
  eigenvalues    EBANDS =      -869.64157938
  atomic energy  EATOM  =     19773.19996240
  Solvation  Ediel_sol  =         0.00000000
  ---------------------------------------------------
  free energy    TOTEN  =       -95.90879446 eV

  energy without entropy =      -95.89363322  energy(sigma->0) =      -95.90121384


--------------------------------------------------------------------------------------------------------




--------------------------------------- Iteration      1(  18)  ---------------------------------------


    POTLOK:  cpu time    0.3618: real time    0.3631
    SETDIJ:  cpu time    0.7030: real time    0.7046
     EDDAV:  cpu time   27.7787: real time   27.8441
       DOS:  cpu time    0.0030: real time    0.0030
    CHARGE:  cpu time    1.3793: real time    1.3826
    MIXING:  cpu time    0.0203: real time    0.0203
    --------------------------------------------
      LOOP:  cpu time   30.2461: real time   30.3178

 eigenvalue-minimisations  :  5280
 total energy-change (2. order) :-0.3329569E-01  (-0.6171364E-02)
 number of electron     124.0000006 magnetization       4.0834792
 augmentation part       48.1243907 magnetization       3.7405454

 Broyden mixing:
  rms(total) = 0.52589E-01    rms(broyden)= 0.52561E-01
  rms(prec ) = 0.57506E-01
  weight for this iteration     100.00

 eigenvalues of (default mixing * dielectric matrix)
  average eigenvalue GAMMA=   1.1871
  5.1189  1.6605  1.6080  1.6080  0.9270  0.9270  0.1426  0.6318  0.6318  0.6817
  0.4724  0.4724  0.5505

 Free energy of the ion-electron system (eV)
  ---------------------------------------------------
  alpha Z        PSCENC =       832.02900754
  Ewald energy   TEWEN  =    -10839.25072494
  -Hartree energ DENC   =     -7291.35844970
  -exchange      EXHF   =         0.00000000
  -V(xc)+E(xc)   XCENC  =       511.99273888
  PAW double counting   =     17162.64897015   -19378.52306327
  entropy T*S    EENTRO =        -0.01708822
  eigenvalues    EBANDS =      -866.66344300
  atomic energy  EATOM  =     19773.19996240
  Solvation  Ediel_sol  =         0.00000000
  ---------------------------------------------------
  free energy    TOTEN  =       -95.94209015 eV

  energy without entropy =      -95.92500193  energy(sigma->0) =      -95.93354604


--------------------------------------------------------------------------------------------------------




--------------------------------------- Iteration      1(  19)  ---------------------------------------


    POTLOK:  cpu time    0.3509: real time    0.3534
    SETDIJ:  cpu time    0.7198: real time    0.7215
     EDDAV:  cpu time   25.9257: real time   25.9868
       DOS:  cpu time    0.0026: real time    0.0026
    CHARGE:  cpu time    1.2973: real time    1.3004
    MIXING:  cpu time    0.0196: real time    0.0197
    --------------------------------------------
      LOOP:  cpu time   28.3160: real time   28.3843

 eigenvalue-minimisations  :  4672
 total energy-change (2. order) :-0.7933608E-02  (-0.3055153E-02)
 number of electron     124.0000006 magnetization       4.0437644
 augmentation part       48.1407360 magnetization       3.7048523

 Broyden mixing:
  rms(total) = 0.32813E-01    rms(broyden)= 0.32802E-01
  rms(prec ) = 0.35372E-01
  weight for this iteration     100.00

 eigenvalues of (default mixing * dielectric matrix)
  average eigenvalue GAMMA=   1.1781
  5.1758  1.7314  1.7314  1.6710  1.0145  1.0145  0.1426  0.6391  0.6391  0.6712
  0.4717  0.4717  0.5594  0.5594

 Free energy of the ion-electron system (eV)
  ---------------------------------------------------
  alpha Z        PSCENC =       832.02900754
  Ewald energy   TEWEN  =    -10839.25072494
  -Hartree energ DENC   =     -7288.77609265
  -exchange      EXHF   =         0.00000000
  -V(xc)+E(xc)   XCENC  =       511.86943419
  PAW double counting   =     17151.64084048   -19366.30403592
  entropy T*S    EENTRO =        -0.01704860
  eigenvalues    EBANDS =      -870.34136627
  atomic energy  EATOM  =     19773.19996240
  Solvation  Ediel_sol  =         0.00000000
  ---------------------------------------------------
  free energy    TOTEN  =       -95.95002376 eV

  energy without entropy =      -95.93297516  energy(sigma->0) =      -95.94149946


--------------------------------------------------------------------------------------------------------




--------------------------------------- Iteration      1(  20)  ---------------------------------------


    POTLOK:  cpu time    0.3211: real time    0.3219
    SETDIJ:  cpu time    0.6198: real time    0.6212
     EDDAV:  cpu time   31.8358: real time   31.9108
       DOS:  cpu time    0.0029: real time    0.0029
    CHARGE:  cpu time    1.5036: real time    1.5072
    MIXING:  cpu time    0.0235: real time    0.0236
    --------------------------------------------
      LOOP:  cpu time   34.3067: real time   34.3875

 eigenvalue-minimisations  :  5480
 total energy-change (2. order) :-0.1879835E-02  (-0.6650385E-03)
 number of electron     124.0000006 magnetization       4.0223094
 augmentation part       48.1502389 magnetization       3.6757928

 Broyden mixing:
  rms(total) = 0.25530E-01    rms(broyden)= 0.25524E-01
  rms(prec ) = 0.27930E-01
  weight for this iteration     100.00

 eigenvalues of (default mixing * dielectric matrix)
  average eigenvalue GAMMA=   1.1680
  5.2728  1.7839  1.7839  1.6835  0.1426  0.8954  0.8954  0.8255  0.8255  0.6440
  0.6440  0.4715  0.4715  0.5905  0.5905

 Free energy of the ion-electron system (eV)
  ---------------------------------------------------
  alpha Z        PSCENC =       832.02900754
  Ewald energy   TEWEN  =    -10839.25072494
  -Hartree energ DENC   =     -7288.29201980
  -exchange      EXHF   =         0.00000000
  -V(xc)+E(xc)   XCENC  =       511.84872398
  PAW double counting   =     17152.83930662   -19366.44584237
  entropy T*S    EENTRO =        -0.01691655
  eigenvalues    EBANDS =      -871.86340048
  atomic energy  EATOM  =     19773.19996240
  Solvation  Ediel_sol  =         0.00000000
  ---------------------------------------------------
  free energy    TOTEN  =       -95.95190360 eV

  energy without entropy =      -95.93498705  energy(sigma->0) =      -95.94344532


--------------------------------------------------------------------------------------------------------




--------------------------------------- Iteration      1(  21)  ---------------------------------------


    POTLOK:  cpu time    0.3798: real time    0.3810
    SETDIJ:  cpu time    0.7976: real time    0.7995
     EDDAV:  cpu time   27.9487: real time   28.0145
       DOS:  cpu time    0.0029: real time    0.0029
    CHARGE:  cpu time    1.5688: real time    1.5725
    MIXING:  cpu time    0.0320: real time    0.0321
    --------------------------------------------
      LOOP:  cpu time   30.7298: real time   30.8025

 eigenvalue-minimisations  :  5016
 total energy-change (2. order) :-0.7488405E-03  (-0.5155058E-03)
 number of electron     124.0000006 magnetization       4.0149923
 augmentation part       48.1411745 magnetization       3.6712720

 Broyden mixing:
  rms(total) = 0.20401E-01    rms(broyden)= 0.20396E-01
  rms(prec ) = 0.22314E-01
  weight for this iteration     100.00

 eigenvalues of (default mixing * dielectric matrix)
  average eigenvalue GAMMA=   1.2148
  5.2719  2.1974  1.8406  1.8406  1.1443  1.1443  0.1426  0.9148  0.9148  0.6476
  0.6476  0.4714  0.4714  0.6071  0.6071  0.5739

 Free energy of the ion-electron system (eV)
  ---------------------------------------------------
  alpha Z        PSCENC =       832.02900754
  Ewald energy   TEWEN  =    -10839.25072494
  -Hartree energ DENC   =     -7288.90951757
  -exchange      EXHF   =         0.00000000
  -V(xc)+E(xc)   XCENC  =       511.88500138
  PAW double counting   =     17153.37201070   -19366.86860769
  entropy T*S    EENTRO =        -0.01728171
  eigenvalues    EBANDS =      -871.39250256
  atomic energy  EATOM  =     19773.19996240
  Solvation  Ediel_sol  =         0.00000000
  ---------------------------------------------------
  free energy    TOTEN  =       -95.95265244 eV

  energy without entropy =      -95.93537073  energy(sigma->0) =      -95.94401158


--------------------------------------------------------------------------------------------------------




--------------------------------------- Iteration      1(  22)  ---------------------------------------


    POTLOK:  cpu time    0.3397: real time    0.3410
    SETDIJ:  cpu time    0.8460: real time    0.8480
     EDDAV:  cpu time   28.0113: real time   28.0772
       DOS:  cpu time    0.0028: real time    0.0028
    CHARGE:  cpu time    1.3877: real time    1.3910
    MIXING:  cpu time    0.0245: real time    0.0246
    --------------------------------------------
      LOOP:  cpu time   30.6119: real time   30.6845

 eigenvalue-minimisations  :  4944
 total energy-change (2. order) :-0.5788919E-03  (-0.1921797E-03)
 number of electron     124.0000006 magnetization       4.0141407
 augmentation part       48.1431184 magnetization       3.6754395

 Broyden mixing:
  rms(total) = 0.11629E-01    rms(broyden)= 0.11622E-01
  rms(prec ) = 0.12795E-01
  weight for this iteration     100.00

 eigenvalues of (default mixing * dielectric matrix)
  average eigenvalue GAMMA=   1.2079
  5.2456  2.2635  1.8537  1.8537  1.1387  1.1387  0.1426  1.0193  0.9187  0.9187
  0.6473  0.6473  0.4715  0.4715  0.6175  0.6175  0.5679

 Free energy of the ion-electron system (eV)
  ---------------------------------------------------
  alpha Z        PSCENC =       832.02900754
  Ewald energy   TEWEN  =    -10839.25072494
  -Hartree energ DENC   =     -7288.45160326
  -exchange      EXHF   =         0.00000000
  -V(xc)+E(xc)   XCENC  =       511.85396167
  PAW double counting   =     17150.87728749   -19363.96647475
  entropy T*S    EENTRO =        -0.01784816
  eigenvalues    EBANDS =      -872.22679933
  atomic energy  EATOM  =     19773.19996240
  Solvation  Ediel_sol  =         0.00000000
  ---------------------------------------------------
  free energy    TOTEN  =       -95.95323133 eV

  energy without entropy =      -95.93538317  energy(sigma->0) =      -95.94430725


--------------------------------------------------------------------------------------------------------




--------------------------------------- Iteration      1(  23)  ---------------------------------------


    POTLOK:  cpu time    0.3633: real time    0.3645
    SETDIJ:  cpu time    0.7324: real time    0.7342
     EDDAV:  cpu time   28.5944: real time   28.6617
       DOS:  cpu time    0.0028: real time    0.0028
    CHARGE:  cpu time    1.5291: real time    1.5327
    MIXING:  cpu time    0.0256: real time    0.0256
    --------------------------------------------
      LOOP:  cpu time   31.2475: real time   31.3215

 eigenvalue-minimisations  :  4896
 total energy-change (2. order) :-0.8013353E-03  (-0.1234895E-03)
 number of electron     124.0000006 magnetization       4.0075271
 augmentation part       48.1389739 magnetization       3.6696488

 Broyden mixing:
  rms(total) = 0.88130E-02    rms(broyden)= 0.88063E-02
  rms(prec ) = 0.96433E-02
  weight for this iteration     100.00

 eigenvalues of (default mixing * dielectric matrix)
  average eigenvalue GAMMA=   1.1937
  5.3104  2.3038  1.7457  1.7457  1.3576  1.3576  1.0163  1.0163  0.1426  0.6432
  0.6432  0.7407  0.7407  0.4713  0.4713  0.5673  0.6063  0.6063

 Free energy of the ion-electron system (eV)
  ---------------------------------------------------
  alpha Z        PSCENC =       832.02900754
  Ewald energy   TEWEN  =    -10839.25072494
  -Hartree energ DENC   =     -7288.84333562
  -exchange      EXHF   =         0.00000000
  -V(xc)+E(xc)   XCENC  =       511.86976311
  PAW double counting   =     17152.33733737   -19365.51851019
  entropy T*S    EENTRO =        -0.01827932
  eigenvalues    EBANDS =      -871.75925302
  atomic energy  EATOM  =     19773.19996240
[...]
  3.189   0.000  -0.000  -1.153   0.000   0.000   0.000  -1.972   0.000   0.000   1.665  -0.000  -0.000   0.000   0.002  -0.046
  0.000   3.022   0.000  -0.000   0.357  -0.000  -0.000   0.000  -1.814   0.000   0.000  -0.263   0.000   0.000  -0.000  -0.000
 -0.000  -0.000   2.254   0.000  -0.000   0.357   0.000   0.000  -0.000  -0.533  -0.000   0.000  -0.344   0.000  -0.000   0.000
 -1.153   0.000   0.000   2.347   0.000  -0.000   0.000   1.616  -0.000  -0.000  -1.159  -0.000   0.000   0.000   0.000   0.029
  0.000   0.357   0.000  -0.000   2.254   0.000  -0.000   0.000  -0.344   0.000   0.000  -0.533  -0.000   0.000   0.000   0.000
  0.000   0.000   0.357  -0.000  -0.000   3.022   0.000  -0.000  -0.000  -0.263   0.000   0.000  -1.814  -0.000  -0.000  -0.000
 -0.000  -0.000   0.000   0.000  -0.000  -0.000   2.609  -0.000   0.000   0.000   0.000   0.000  -0.000  -0.902  -0.000  -0.000
 -1.972  -0.000   0.000   1.616  -0.000  -0.000  -0.000   2.345   0.000  -0.000  -1.657  -0.000   0.000  -0.000  -0.003   0.055
 -0.000  -1.814   0.000  -0.000  -0.344   0.000   0.000   0.000   2.205   0.000  -0.000   0.329   0.000  -0.000   0.000   0.000
  0.000   0.000  -0.533  -0.000   0.000  -0.263   0.000  -0.000  -0.000   0.813   0.000   0.000   0.329   0.000   0.000  -0.000
  1.665   0.000  -0.000  -1.159   0.000   0.000   0.000  -1.657  -0.000   0.000   1.470   0.000  -0.000   0.000   0.000  -0.043
  0.000  -0.263   0.000   0.000  -0.533   0.000   0.000   0.000   0.329   0.000   0.000   0.813   0.000  -0.000  -0.000   0.000
 -0.000   0.000  -0.344   0.000   0.000  -1.814   0.000   0.000  -0.000   0.329  -0.000  -0.000   2.205   0.000  -0.000   0.000
  0.000   0.000   0.000   0.000   0.000   0.000  -0.902   0.000  -0.000  -0.000   0.000  -0.000   0.000   1.210   0.000   0.000
  0.002  -0.000  -0.000   0.000   0.000  -0.000   0.000  -0.003  -0.000   0.000   0.000   0.000  -0.000   0.000   2.001  -0.001
 -0.046   0.000   0.000   0.029   0.000  -0.000  -0.000   0.055   0.000  -0.000  -0.043   0.000   0.000  -0.000  -0.001   0.719
 -0.000   0.000   0.001  -0.000   0.000   0.082  -0.000  -0.000  -0.000   0.002   0.000  -0.000  -0.095   0.000   0.000   0.000
  0.075   0.000  -0.000  -0.071   0.000   0.000   0.000  -0.088   0.000   0.000   0.087   0.000  -0.000   0.000  -0.001  -0.013
  0.000   0.082   0.000   0.000   0.001  -0.000  -0.000   0.000  -0.095   0.000  -0.000   0.002   0.000  -0.000  -0.000   0.000
  0.000  -0.000  -0.008   0.000   0.000  -0.270  -0.000  -0.000  -0.000   0.003  -0.000   0.000   0.286   0.000   0.000  -0.000
 -0.242   0.000   0.000   0.211   0.000  -0.000   0.000   0.261   0.000  -0.000  -0.235   0.000   0.000   0.000  -0.001   0.006
 -0.000  -0.270   0.000  -0.000  -0.008   0.000   0.000  -0.000   0.286   0.000  -0.000   0.003   0.000  -0.000   0.000  -0.000
  0.000  -0.015   0.000   0.000   0.040  -0.000  -0.000   0.000   0.022   0.000   0.000  -0.038   0.000   0.000   0.000  -0.000
  0.000  -0.000  -0.005  -0.000   0.000   0.007   0.000   0.000   0.000  -0.008  -0.000  -0.000   0.004  -0.000   0.000  -0.000
  0.062   0.000  -0.000  -0.025  -0.000   0.000   0.000  -0.069   0.000   0.000   0.026  -0.000  -0.000   0.000   0.006  -0.124
 -0.000   0.007   0.000  -0.000  -0.005   0.000   0.000   0.000   0.004   0.000   0.000  -0.008   0.000   0.000   0.000   0.000
 -0.000   0.000   0.040   0.000   0.000  -0.015   0.000   0.000   0.000  -0.038  -0.000   0.000   0.022   0.000  -0.000   0.000
  0.000   0.003  -0.000   0.000   0.007   0.000  -0.000  -0.000  -0.001   0.000   0.000  -0.007   0.000   0.000   0.000   0.000
 -0.000  -0.000   0.002  -0.000   0.000   0.006  -0.000   0.000  -0.000  -0.003   0.000   0.000  -0.004   0.000   0.000  -0.000
  0.008   0.000  -0.000  -0.002   0.000  -0.000   0.000  -0.010   0.000   0.000   0.003   0.000  -0.000   0.000  -0.000  -0.030
 -0.000   0.006   0.000  -0.000   0.002  -0.000  -0.000   0.000  -0.004   0.000   0.000  -0.003  -0.000   0.000   0.000   0.000
 -0.000   0.000   0.007  -0.000  -0.000   0.003  -0.000   0.000   0.000  -0.007  -0.000   0.000  -0.001   0.000   0.000   0.000
 total augmentation occupancy for first ion, spin component:           2
  1.097   0.000  -0.000  -0.918   0.000   0.000   0.000  -0.489   0.000   0.000   0.353   0.000  -0.000   0.000   0.001  -0.019
 -0.000   1.041   0.000  -0.000  -0.030   0.000   0.000   0.000  -0.412  -0.000  -0.000  -0.073   0.000   0.000  -0.000   0.000
 -0.000  -0.000   0.161   0.000   0.000  -0.030  -0.000   0.000  -0.000  -0.069  -0.000   0.000   0.008  -0.000  -0.000   0.000
 -0.918   0.000   0.000   1.057   0.000  -0.000   0.000   0.402   0.000  -0.000  -0.394  -0.000   0.000   0.000  -0.001   0.020
 -0.000  -0.030  -0.000  -0.000   0.161   0.000  -0.000   0.000   0.008  -0.000  -0.000  -0.069   0.000   0.000   0.000   0.000
  0.000   0.000  -0.030  -0.000  -0.000   1.041  -0.000  -0.000   0.000  -0.073   0.000  -0.000  -0.412  -0.000   0.000  -0.000
 -0.000   0.000  -0.000  -0.000  -0.000  -0.000   0.177  -0.000  -0.000   0.000   0.000   0.000   0.000  -0.084   0.000  -0.000
 -0.489  -0.000   0.000   0.402   0.000  -0.000   0.000   0.299   0.000  -0.000  -0.303   0.000   0.000   0.000  -0.001   0.007
 -0.000  -0.412  -0.000  -0.000   0.008   0.000  -0.000   0.000   0.192  -0.000  -0.000   0.015   0.000  -0.000  -0.000   0.000
  0.000   0.000  -0.069  -0.000  -0.000  -0.073  -0.000  -0.000   0.000  -0.011   0.000  -0.000   0.015   0.000   0.000  -0.000
  0.353  -0.000  -0.000  -0.394  -0.000   0.000   0.000  -0.303  -0.000   0.000   0.240  -0.000  -0.000   0.000   0.000  -0.006
  0.000  -0.073   0.000   0.000  -0.069   0.000   0.000   0.000   0.015  -0.000  -0.000  -0.011   0.000   0.000   0.000  -0.000
 -0.000   0.000   0.008   0.000  -0.000  -0.412  -0.000   0.000   0.000   0.015  -0.000   0.000   0.192   0.000  -0.000   0.000
 -0.000   0.000   0.000   0.000   0.000   0.000  -0.084   0.000  -0.000   0.000   0.000   0.000   0.000  -0.012   0.000  -0.000
  0.001  -0.000  -0.000  -0.001   0.000   0.000   0.000  -0.001   0.000   0.000   0.000   0.000  -0.000   0.000  -0.004  -0.021
 -0.019  -0.000   0.000   0.020  -0.000  -0.000  -0.000   0.007   0.000  -0.000  -0.006   0.000   0.000  -0.000  -0.021   0.015
  0.000  -0.000  -0.003  -0.000  -0.000   0.012   0.000  -0.000   0.000   0.001  -0.000   0.000   0.001   0.000   0.000   0.000
  0.016  -0.000  -0.000  -0.023   0.000   0.000   0.000  -0.003   0.000   0.000   0.009  -0.000  -0.000  -0.000  -0.000  -0.001
  0.000   0.012   0.000  -0.000  -0.003   0.000   0.000   0.000   0.001   0.000   0.000   0.001  -0.000  -0.000  -0.000   0.000
 -0.000  -0.000   0.002   0.000   0.000  -0.045   0.000  -0.000   0.000   0.002  -0.000   0.000   0.022   0.000  -0.000  -0.000
 -0.051  -0.000   0.000   0.052   0.000  -0.000   0.000   0.026   0.000  -0.000  -0.025  -0.000   0.000   0.000   0.000   0.001
  0.000  -0.045   0.000  -0.000   0.002   0.000  -0.000   0.000   0.022   0.000   0.000   0.002   0.000  -0.000   0.000  -0.000
  0.000  -0.021   0.000   0.000   0.000   0.000  -0.000   0.000   0.007  -0.000  -0.000   0.002   0.000  -0.000  -0.000  -0.000
 -0.000  -0.000   0.001   0.000   0.000  -0.012   0.000  -0.000  -0.000   0.002  -0.000  -0.000   0.002   0.000  -0.000  -0.000
  0.018  -0.000  -0.000  -0.018   0.000   0.000  -0.000  -0.006   0.000   0.000   0.006   0.000  -0.000   0.000   0.001   0.001
  0.000  -0.012  -0.000   0.000   0.001   0.000  -0.000   0.000   0.002   0.000  -0.000   0.002  -0.000  -0.000   0.000  -0.000
 -0.000   0.000   0.000   0.000  -0.000  -0.021   0.000   0.000   0.000   0.002  -0.000   0.000   0.007  -0.000  -0.000  -0.000
  0.000  -0.003   0.000  -0.000  -0.000   0.000   0.000   0.000   0.000  -0.000   0.000   0.001  -0.000  -0.000   0.000  -0.000
 -0.000   0.000   0.000   0.000  -0.000  -0.001   0.000  -0.000   0.000   0.000   0.000   0.000  -0.000   0.000  -0.000  -0.000
  0.002  -0.000  -0.000  -0.002   0.000   0.000   0.000  -0.000   0.000  -0.000   0.001  -0.000  -0.000  -0.000   0.001   0.000
  0.000  -0.001   0.000  -0.000   0.000  -0.000  -0.000  -0.000  -0.000  -0.000   0.000   0.000  -0.000  -0.000   0.000   0.000
 -0.000  -0.000  -0.000   0.000   0.000  -0.003  -0.000   0.000   0.000   0.001  -0.000   0.000   0.000   0.000  -0.000  -0.000


------------------------ aborting loop because EDIFF is reached ----------------------------------------


 


 total charge     
 
# of ion       s       p       d       f       tot
--------------------------------------------------
    1        2.176   6.094   0.760  12.326  21.356
    2        2.176   6.094   0.760  12.326  21.356
    3        0.160   0.193   0.086   0.000   0.439
    4        0.160   0.193   0.086   0.000   0.439
    5        0.696   0.679  10.178   0.000  11.552
    6        0.696   0.679  10.178   0.000  11.552
    7        1.561   3.512   0.000   0.000   5.073
    8        1.561   3.512   0.000   0.000   5.073
    9        1.562   3.508   0.000   0.000   5.070
   10        1.562   3.508   0.000   0.000   5.070
   11        1.564   3.468   0.000   0.000   5.032
   12        1.564   3.468   0.000   0.000   5.032
   13        1.556   3.496   0.000   0.000   5.051
   14        1.556   3.496   0.000   0.000   5.051
--------------------------------------------------
tot         18.549  41.899  22.048  24.653 107.148

 


 magnetization (x)
 
# of ion       s       p       d       f       tot
--------------------------------------------------
    1        0.001   0.002   0.004   1.842   1.849
    2        0.001   0.002   0.004   1.842   1.849
    3       -0.000   0.000   0.000   0.000   0.000
    4       -0.000   0.000   0.000   0.000   0.000
    5        0.000   0.000   0.001   0.000   0.001
    6        0.000   0.000   0.001   0.000   0.001
    7        0.001   0.068   0.000   0.000   0.069
    8        0.001   0.068   0.000   0.000   0.069
    9        0.001   0.038   0.000   0.000   0.039
   10        0.001   0.038   0.000   0.000   0.039
   11        0.000   0.004   0.000   0.000   0.004
   12        0.000   0.004   0.000   0.000   0.004
   13        0.000   0.006   0.000   0.000   0.006
   14        0.000   0.006   0.000   0.000   0.006
--------------------------------------------------
tot          0.006   0.237   0.009   3.684   3.936

 
    CHARGE:  cpu time    1.4349: real time    1.4383
    FORLOC:  cpu time    0.0275: real time    0.0275
    FORNL :  cpu time    9.7945: real time    9.8178
    STRESS:  cpu time   22.7874: real time   22.8446
    FORCOR:  cpu time    0.3381: real time    0.3389
    FORHAR:  cpu time    0.0539: real time    0.0540
    MIXING:  cpu time    0.0323: real time    0.0324
    OFIELD:  cpu time    0.0001: real time    0.0001

  FORCE on cell =-STRESS in cart. coord.  units (eV):
  Direction    XX          YY          ZZ          XY          YZ          ZX
  --------------------------------------------------------------------------------------
  Alpha Z   832.02901   832.02901   832.02901
  Ewald   -2088.10411 -2088.10406 -6663.06458    -0.00000    -0.00002    -0.00000
  Hartree  3773.21330  3773.21330  -257.92647    -0.00000    -0.00001     0.00000
  E(xc)    -710.49703  -710.49695  -710.75758    -0.00009     0.00005     0.00008
  Local   -3451.25336 -3451.25482  5150.98217    -0.00146     0.00055     0.00089
  n-local  -374.17099  -364.91375  -360.95720     2.67330     1.82402    -1.07711
  augment   447.84332   447.84498   447.63724     0.00042    -0.00018    -0.00019
  Kinetic  1588.35324  1550.78396  1562.25781   -10.84525    -6.72627     3.88308
  Fock        0.00000     0.00000     0.00000     0.00000     0.00000     0.00000
  -------------------------------------------------------------------------------------
  Total       3.25753     3.25753     0.20041    -0.00000     0.00000    -0.00000
  in kB      30.59979    30.59979     1.88254    -0.00000     0.00000    -0.00000
  external pressure =       21.03 kB  Pullay stress =        0.00 kB


 VOLUME and BASIS-vectors are now :
 -----------------------------------------------------------------------------
  energy-cutoff  :      500.00
  volume of cell :      170.56
      direct lattice vectors                 reciprocal lattice vectors
     3.426000000  0.000000000  0.000000000     0.291885581  0.168520221 -0.079462828
    -1.713000000  2.967003000  0.000000000     0.000000000  0.337040441 -0.039731414
     3.426000000  1.978002000 16.779334000     0.000000000  0.000000000  0.059597121

  length of vectors
     3.426000000  3.425999971 17.239374043     0.346281097  0.339374195  0.059597121


 FORCES acting on ions
    electron-ion (+dipol)            ewald-force                    non-local-force                 convergence-correction
 -----------------------------------------------------------------------------------------------
   -.187E-06 0.383E-06 -.633E+03   -.573E-12 -.431E-06 0.637E+03   0.104E-17 -.445E-17 -.305E+01   -.878E-07 -.640E-07 0.183E-01
   -.187E-06 0.383E-06 -.633E+03   -.573E-12 -.431E-06 0.637E+03   -.729E-17 0.112E-16 -.305E+01   -.878E-07 -.640E-07 0.183E-01
   0.168E-04 0.691E-05 -.189E+02   -.490E-12 -.111E-05 0.178E+02   0.302E-16 -.162E-16 0.129E+01   -.147E-07 -.679E-08 -.211E-02
   0.168E-04 0.691E-05 -.189E+02   -.490E-12 -.111E-05 0.178E+02   -.165E-16 -.845E-18 0.129E+01   -.147E-07 -.679E-08 -.211E-02
   0.280E-04 0.116E-04 0.631E+03   0.903E-12 0.657E-05 -.633E+03   0.217E-15 0.347E-16 0.621E+00   0.265E-06 0.129E-06 0.987E-02
   0.280E-04 0.116E-04 0.631E+03   0.903E-12 0.657E-05 -.633E+03   0.182E-15 0.960E-16 0.621E+00   0.265E-06 0.129E-06 0.987E-02
   0.181E-04 0.142E-04 -.573E+03   -.143E-10 -.532E-05 0.576E+03   -.768E-17 -.329E-17 -.428E+01   0.107E-07 0.104E-07 -.632E-03
   0.181E-04 0.142E-04 -.573E+03   -.143E-10 -.532E-05 0.576E+03   0.413E-17 0.309E-17 -.428E+01   0.107E-07 0.104E-07 -.632E-03
   -.153E-04 -.137E-04 0.179E+03   0.178E-10 0.533E-05 -.173E+03   0.121E-15 0.486E-17 -.715E+01   0.217E-07 0.694E-08 0.418E-02
   -.153E-04 -.137E-04 0.179E+03   0.178E-10 0.533E-05 -.173E+03   0.171E-15 0.957E-17 -.715E+01   0.217E-07 0.694E-08 0.418E-02
   0.402E-05 0.924E-05 0.321E+03   -.817E-11 -.661E-05 -.325E+03   0.108E-15 -.174E-16 0.562E+01   0.569E-08 0.352E-08 0.293E-02
   0.402E-05 0.924E-05 0.321E+03   -.817E-11 -.661E-05 -.325E+03   0.656E-16 -.332E-16 0.562E+01   0.569E-08 0.352E-08 0.293E-02
   -.910E-05 -.533E-05 0.931E+02   0.485E-11 0.157E-05 -.991E+02   0.269E-16 -.495E-17 0.749E+01   -.345E-07 -.200E-07 -.579E-02
   -.910E-05 -.533E-05 0.931E+02   0.485E-11 0.157E-05 -.991E+02   -.210E-16 -.132E-16 0.749E+01   -.345E-07 -.200E-07 -.579E-02
 -----------------------------------------------------------------------------------------------
   0.847E-04 0.467E-04 -.112E+01   -.258E-13 -.224E-12 0.298E-12   0.876E-15 0.659E-16 0.107E+01   0.331E-06 0.118E-06 0.535E-01
 
 
 POSITION                                       TOTAL-FORCE (eV/Angst)
 -----------------------------------------------------------------------------------
      0.00000      0.00000      0.00000         0.000000      0.000000      1.354298
      1.71300      0.98900      8.38967         0.000000      0.000000      1.354298
      1.71300      0.98900      2.98588        -0.000000     -0.000000      0.247637
      3.42600      1.97800     11.37555        -0.000000     -0.000000      0.247637
      1.71300      2.96700      5.40378        -0.000000      0.000000     -1.461022
      3.42600      3.95600     13.79345        -0.000000     -0.000000     -1.461022
      1.71300      0.98900      1.06373         0.000000      0.000000     -1.587357
      3.42600      1.97800      9.45339        -0.000000      0.000000     -1.587357
      1.71300      2.96700      7.32594         0.000000     -0.000000     -1.010714
      3.42600      3.95600     15.71561         0.000000     -0.000000     -1.010714
      1.71300      0.98900      5.14765         0.000000      0.000000      1.026642
      3.42600      1.97800     13.53731         0.000000     -0.000000      1.026642
      1.71300      2.96700      3.24202        -0.000000     -0.000000      1.430516
      3.42600      3.95600     11.63169        -0.000000     -0.000000      1.430516
 -----------------------------------------------------------------------------------
    total drift:                                0.000085      0.000047      0.003729


--------------------------------------------------------------------------------------------------------



  FREE ENERGIE OF THE ION-ELECTRON SYSTEM (eV)
  ---------------------------------------------------
  free  energy   TOTEN  =       -95.95691639 eV

  energy  without entropy=      -95.93500758  energy(sigma->0) =      -95.94596199
 


--------------------------------------------------------------------------------------------------------


    POTLOK:  cpu time    1.0725: real time    1.0751


--------------------------------------------------------------------------------------------------------


 writing wavefunctions
     LOOP+:  cpu time 1015.3296: real time 1018.2731
    4ORBIT:  cpu time    0.0000: real time    0.0000
 


 total charge     
 
# of ion       s       p       d       f       tot
--------------------------------------------------
    1        2.176   6.094   0.760  12.326  21.356
    2        2.176   6.094   0.760  12.326  21.356
    3        0.160   0.193   0.086   0.000   0.439
    4        0.160   0.193   0.086   0.000   0.439
    5        0.696   0.679  10.178   0.000  11.552
    6        0.696   0.679  10.178   0.000  11.552
    7        1.561   3.512   0.000   0.000   5.073
    8        1.561   3.512   0.000   0.000   5.073
    9        1.562   3.508   0.000   0.000   5.070
   10        1.562   3.508   0.000   0.000   5.070
   11        1.564   3.468   0.000   0.000   5.032
   12        1.564   3.468   0.000   0.000   5.032
   13        1.556   3.496   0.000   0.000   5.051
   14        1.556   3.496   0.000   0.000   5.051
--------------------------------------------------
tot         18.549  41.899  22.048  24.653 107.148

 


 magnetization (x)
 
# of ion       s       p       d       f       tot
--------------------------------------------------
    1        0.001   0.002   0.004   1.842   1.849
    2        0.001   0.002   0.004   1.842   1.849
    3       -0.000   0.000   0.000   0.000   0.000
    4       -0.000   0.000   0.000   0.000   0.000
    5        0.000   0.000   0.001   0.000   0.001
    6        0.000   0.000   0.001   0.000   0.001
    7        0.001   0.068   0.000   0.000   0.069
    8        0.001   0.068   0.000   0.000   0.069
    9        0.001   0.038   0.000   0.000   0.039
   10        0.001   0.038   0.000   0.000   0.039
   11        0.000   0.004   0.000   0.000   0.004
   12        0.000   0.004   0.000   0.000   0.004
   13        0.000   0.006   0.000   0.000   0.006
   14        0.000   0.006   0.000   0.000   0.006
--------------------------------------------------
tot          0.006   0.237   0.009   3.684   3.936

 

 total amount of memory used by VASP MPI-rank0   266106. kBytes
=======================================================================

   base      :      30000. kBytes
   nonl-proj :      41243. kBytes
   fftplans  :      45112. kBytes
   grid      :      32832. kBytes
   one-center:       1376. kBytes
   wavefun   :     115543. kBytes
 
  
  
 General timing and accounting informations for this job:
 ========================================================
  
                  Total CPU time used (sec):     1020.551
                            User time (sec):     1015.550
                          System time (sec):        5.001
                         Elapsed time (sec):     1024.242
  
                   Maximum memory used (kb):      348664.
                   Average memory used (kb):           0.
  
                          Minor page faults:      2447768
                          Major page faults:            1
                 Voluntary context switches:         3594
