    4    4    1    1
  0.2863293E+02  0.4298630E-09  0.4298630E-09  0.7575158E-09  0.5000000E-15
  1.000000000000000E-004
  CAR 
 unknown system                          
     36    240     24
 
  0.0000000E+00  0.0000000E+00  0.0000000E+00  0.4166667E-02
    1      -11.077266   1.000000
    2       -7.902041   1.000000
    3       -1.633587   1.000000
    4       -1.354712   1.000000
    5       -1.354612   1.000000
    6        0.213170   1.000000
    7        0.938657   1.000000
    8        0.938889   1.000000
    9        1.432715   1.000000
   10        1.432976   1.000000
   11        1.584976   1.000000
   12        1.585164   1.000000
   13        1.671593   1.000000
   14        2.997735   1.000000
   15        2.997956   1.000000
   16        3.418579   1.000000
   17        3.433957   1.000000
   18        3.944497   0.330075
   19        3.944531   0.329733
   20        7.036095   0.000000
   21        7.036185   0.000000
   22        7.648465   0.000000
   23        9.610802   0.000000
   24        9.922685   0.000000
 
  0.0000000E+00  0.0000000E+00  0.8474576E-02  0.4166667E-02
    1      -11.077262   1.000000
    2       -7.902073   1.000000
    3       -1.633359   1.000000
    4       -1.354712   1.000000
    5       -1.354613   1.000000
    6        0.213002   1.000000
    7        0.938639   1.000000
    8        0.938872   1.000000
    9        1.432688   1.000000
   10        1.432949   1.000000
   11        1.585049   1.000000
   12        1.585237   1.000000
   13        1.671694   1.000000
   14        2.997791   1.000000
   15        2.998013   1.000000
   16        3.401516   1.000000
   17        3.450790   1.000000
   18        3.944302   0.332082
   19        3.944335   0.331739
   20        7.036355   0.000000
   21        7.036446   0.000000
   22        7.648769   0.000000
   23        9.608387   0.000000
   24        9.925068   0.000000
 
  0.0000000E+00  0.0000000E+00  0.1694915E-01  0.4166667E-02
    1      -11.077245   1.000000
    2       -7.902163   1.000000
    3       -1.632677   1.000000
    4       -1.354713   1.000000
    5       -1.354614   1.000000
    6        0.212498   1.000000
    7        0.938586   1.000000
    8        0.938818   1.000000
    9        1.432610   1.000000
   10        1.432870   1.000000
   11        1.585269   1.000000
   12        1.585457   1.000000
   13        1.671996   1.000000
   14        2.997961   1.000000
   15        2.998182   1.000000
   16        3.378383   1.000000
   17        3.473236   1.000000
   18        3.943716   0.338122
   19        3.943749   0.337777
   20        7.037137   0.000000
   21        7.037227   0.000000
   22        7.649680   0.000000
   23        9.601371   0.000000
   24        9.931989   0.000000
 
  0.0000000E+00  0.0000000E+00  0.2542373E-01  0.4166667E-02
    1      -11.077220   1.000000
    2       -7.902318   1.000000
    3       -1.631568   1.000000
    4       -1.354797   1.000000
    5       -1.354697   1.000000
    6        0.211254   1.000000
    7        0.938496   1.000000
    8        0.938729   1.000000
    9        1.432475   1.000000
   10        1.432735   1.000000
   11        1.585374   1.000000
   12        1.585564   1.000000
   13        1.672487   1.000000
   14        2.998220   1.000000
   15        2.998442   1.000000
   16        3.354600   1.000000
   17        3.495789   1.000000
   18        3.942700   0.348683
   19        3.942734   0.348331
   20        7.038432   0.000000
   21        7.038522   0.000000
   22        7.651188   0.000000
   23        9.590349   0.000000
   24        9.942834   0.000000
 
  0.0000000E+00  0.0000000E+00  0.3389831E-01  0.4166667E-02
    1      -11.077178   1.000000
    2       -7.902526   1.000000
    3       -1.629961   1.000000
    4       -1.354800   1.000000
    5       -1.354701   1.000000
    6        0.210200   1.000000
    7        0.938373   1.000000
    8        0.938606   1.000000
    9        1.432294   1.000000
   10        1.432555   1.000000
   11        1.585873   1.000000
   12        1.586063   1.000000
   13        1.673191   1.000000
   14        2.998613   1.000000
   15        2.998835   1.000000
   16        3.330614   1.000000
   17        3.518235   1.000000
   18        3.941339   0.363024
   19        3.941373   0.362668
   20        7.040247   0.000000
   21        7.040337   0.000000
   22        7.653321   0.000000
   23        9.576103   0.000000
   24        9.956868   0.000000
 
  0.0000000E+00  0.0000000E+00  0.4237288E-01  0.4166667E-02
    1      -11.077123   1.000000
    2       -7.902792   1.000000
    3       -1.627925   1.000000
    4       -1.354804   1.000000
    5       -1.354704   1.000000
    6        0.208682   1.000000
    7        0.938215   1.000000
    8        0.938448   1.000000
    9        1.432065   1.000000
   10        1.432326   1.000000
   11        1.586513   1.000000
   12        1.586703   1.000000
   13        1.674093   1.000000
   14        2.999118   1.000000
   15        2.999340   1.000000
   16        3.306382   1.000000
   17        3.540409   1.000000
   18        3.939597   0.381673
   19        3.939630   0.381311
   20        7.042572   0.000000
   21        7.042663   0.000000
   22        7.656019   0.000000
   23        9.559383   0.000000
   24        9.973289   0.000000
 
  0.0000000E+00  0.0000000E+00  0.5084746E-01  0.4166667E-02
    1      -11.077056   1.000000
    2       -7.903115   1.000000
    3       -1.625444   1.000000
    4       -1.354808   1.000000
    5       -1.354708   1.000000
    6        0.206831   1.000000
    7        0.938024   1.000000
    8        0.938256   1.000000
    9        1.431788   1.000000
   10        1.432049   1.000000
   11        1.587290   1.000000
   12        1.587481   1.000000
   13        1.675196   1.000000
   14        2.999736   1.000000
   15        2.999957   1.000000
   16        3.281974   1.000000
   17        3.562309   1.000000
   18        3.937476   0.404731
   19        3.937510   0.404364
   20        7.045401   0.000000
   21        7.045491   0.000000
   22        7.659296   0.000000
   23        9.540863   0.000000
   24        9.991440   0.000000
 
  0.0000000E+00  0.0000000E+00  0.5932203E-01  0.4166667E-02
    1      -11.076977   1.000000
    2       -7.903495   1.000000
    3       -1.622520   1.000000
    4       -1.354812   1.000000
    5       -1.354712   1.000000
    6        0.204651   1.000000
    7        0.937799   1.000000
    8        0.938031   1.000000
    9        1.431467   1.000000
   10        1.431728   1.000000
   11        1.588202   1.000000
   12        1.588392   1.000000
   13        1.676499   1.000000
   14        3.000464   1.000000
   15        3.000685   1.000000
   16        3.257416   1.000000
   17        3.583915   1.000000
   18        3.934984   0.432259
   19        3.935017   0.431887
   20        7.048726   0.000000
   21        7.048816   0.000000
   22        7.663137   0.000000
   23        9.521082   0.000000
   24       10.010778   0.000000
 
  0.0000000E+00  0.0000000E+00  0.6779661E-01  0.4166667E-02
    1      -11.076885   1.000000
    2       -7.903929   1.000000
    3       -1.619158   1.000000
    4       -1.354816   1.000000
    5       -1.354716   1.000000
    6        0.202144   1.000000
    7        0.937541   1.000000
    8        0.937773   1.000000
    9        1.431104   1.000000
   10        1.431365   1.000000
   11        1.589242   1.000000
   12        1.589433   1.000000
   13        1.678004   1.000000
   14        3.001304   1.000000
   15        3.001525   1.000000
   16        3.232728   1.000000
   17        3.605210   1.000000
   18        3.932126   0.464224
   19        3.932160   0.463849
   20        7.052537   0.000000
   21        7.052628   0.000000
   22        7.667527   0.000000
   23        9.500464   0.000000
   24       10.030879   0.000000
 
  0.0000000E+00  0.0000000E+00  0.7627119E-01  0.4166667E-02
    1      -11.076791   1.000000
    2       -7.904419   1.000000
    3       -1.615367   1.000000
    4       -1.354821   1.000000
    5       -1.354721   1.000000
    6        0.199287   1.000000
    7        0.937208   1.000000
    8        0.937440   1.000000
    9        1.430643   1.000000
   10        1.430904   1.000000
   11        1.590408   1.000000
   12        1.590599   1.000000
   13        1.679358   1.000000
   14        3.002254   1.000000
   15        3.002475   1.000000
   16        3.207925   1.000000
   17        3.626181   1.000000
   18        3.928910   0.500471
   19        3.928943   0.500095
   20        7.056823   0.000000
   21        7.056913   0.000000
   22        7.672429   0.000000
   23        9.479326   0.000000
   24       10.051404   0.000000
 
  0.0000000E+00  0.0000000E+00  0.8474576E-01  0.4166667E-02
    1      -11.076682   1.000000
    2       -7.904965   1.000000
    3       -1.611151   1.000000
    4       -1.355027   1.000000
    5       -1.354928   1.000000
    6        0.196079   1.000000
    7        0.936886   1.000000
    8        0.937118   1.000000
    9        1.430196   1.000000
   10        1.430457   1.000000
   11        1.591421   1.000000
   12        1.591613   1.000000
   13        1.681256   1.000000
   14        3.003240   1.000000
   15        3.003461   1.000000
   16        3.183007   1.000000
   17        3.646809   1.000000
   18        3.925316   0.540946
   19        3.925350   0.540573
   20        7.061570   0.000000
   21        7.061660   0.000000
   22        7.677854   0.000000
   23        9.457956   0.000000
   24       10.072102   0.000000
 
  0.0000000E+00  0.0000000E+00  0.9322034E-01  0.4166667E-02
    1      -11.076557   1.000000
    2       -7.905558   1.000000
    3       -1.606514   1.000000
    4       -1.355036   1.000000
    5       -1.354937   1.000000
    6        0.192602   1.000000
    7        0.936535   1.000000
    8        0.936767   1.000000
    9        1.429721   1.000000
   10        1.429982   1.000000
   11        1.592814   1.000000
   12        1.593006   1.000000
   13        1.683355   1.000000
   14        3.004406   1.000000
   15        3.004627   1.000000
   16        3.158039   1.000000
   17        3.667102   1.000000
   18        3.921409   0.584462
   19        3.921442   0.584097
   20        7.066774   0.000000
   21        7.066863   0.000000
   22        7.683771   0.000000
   23        9.436554   0.000000
   24       10.092783   0.000000
 
  0.0000000E+00  0.0000000E+00  0.1016949E+00  0.4166667E-02
    1      -11.076435   1.000000
    2       -7.906208   1.000000
    3       -1.601470   1.000000
    4       -1.355145   1.000000
    5       -1.355045   1.000000
    6        0.188674   1.000000
    7        0.936039   1.000000
    8        0.936271   1.000000
    9        1.429043   1.000000
   10        1.429306   1.000000
   11        1.594271   1.000000
   12        1.594464   1.000000
   13        1.685573   1.000000
   14        3.005605   1.000000
   15        3.005827   1.000000
   16        3.132947   1.000000
   17        3.687040   1.000000
   18        3.917164   0.630584
   19        3.917197   0.630233
   20        7.072395   0.000000
   21        7.072484   0.000000
   22        7.690144   0.000000
   23        9.415287   0.000000
   24       10.113269   0.000000
 
  0.0000000E+00  0.0000000E+00  0.1101695E+00  0.4166667E-02
    1      -11.076287   1.000000
    2       -7.906896   1.000000
    3       -1.596015   1.000000
    4       -1.355153   1.000000
    5       -1.355053   1.000000
    6        0.184569   1.000000
    7        0.935723   1.000000
    8        0.935955   1.000000
    9        1.428510   1.000000
   10        1.428773   1.000000
   11        1.596028   1.000000
   12        1.596222   1.000000
   13        1.688079   1.000000
   14        3.007001   1.000000
   15        3.007223   1.000000
   16        3.107881   1.000000
   17        3.706614   1.000000
   18        3.912610   0.678038
   19        3.912642   0.677705
   20        7.078464   0.000000
   21        7.078554   0.000000
   22        7.696955   0.000000
   23        9.394302   0.000000
   24       10.133450   0.000000
 
  0.0000000E+00  0.0000000E+00  0.1186441E+00  0.4166667E-02
    1      -11.076133   1.000000
    2       -7.907632   1.000000
    3       -1.590168   1.000000
    4       -1.355161   1.000000
    5       -1.355061   1.000000
    6        0.180157   1.000000
    7        0.935285   1.000000
    8        0.935518   1.000000
    9        1.427953   1.000000
   10        1.428216   1.000000
   11        1.597723   1.000000
   12        1.597917   1.000000
   13        1.690784   1.000000
   14        3.008490   1.000000
   15        3.008711   1.000000
   16        3.082792   1.000000
   17        3.725815   1.000000
   18        3.907744   0.725692
   19        3.907777   0.725384
   20        7.084932   0.000000
   21        7.085021   0.000000
   22        7.704167   0.000000
   23        9.373713   0.000000
   24       10.153207   0.000000
 
  0.0000000E+00  0.0000000E+00  0.1271186E+00  0.4166667E-02
    1      -11.075969   1.000000
    2       -7.908412   1.000000
    3       -1.583935   1.000000
    4       -1.355170   1.000000
    5       -1.355070   1.000000
    6        0.175442   1.000000
    7        0.934823   1.000000
    8        0.935055   1.000000
    9        1.427376   1.000000
   10        1.427639   1.000000
   11        1.599506   1.000000
   12        1.599701   1.000000
   13        1.693691   1.000000
   14        3.010083   1.000000
   15        3.010305   1.000000
   16        3.057697   1.000000
   17        3.744635   1.000000
   18        3.902582   0.772114
   19        3.902615   0.771836
   20        7.091787   0.000000
   21        7.091876   0.000000
   22        7.711746   0.000000
   23        9.353630   0.000000
   24       10.172463   0.000000
 
  0.0000000E+00  0.0000000E+00  0.1355932E+00  0.4166667E-02
    1      -11.075796   1.000000
    2       -7.909232   1.000000
    3       -1.577326   1.000000
    4       -1.355179   1.000000
    5       -1.355078   1.000000
    6        0.170432   1.000000
    7        0.934339   1.000000
    8        0.934571   1.000000
    9        1.426783   1.000000
   10        1.427046   1.000000
   11        1.601371   1.000000
   12        1.601566   1.000000
   13        1.696799   1.000000
   14        3.011780   1.000000
   15        3.012001   1.000000
   16        3.032615   1.000000
   17        3.763067   0.999999
   18        3.897138   0.815891
   19        3.897170   0.815648
   20        7.099011   0.000000
   21        7.099100   0.000000
   22        7.719659   0.000000
   23        9.334146   0.000000
   24       10.191153   0.000000
 
  0.0000000E+00  0.0000000E+00  0.1440678E+00  0.4166667E-02
    1      -11.075614   1.000000
    2       -7.910091   1.000000
    3       -1.570353   1.000000
    4       -1.355187   1.000000
    5       -1.355087   1.000000
    6        0.165132   1.000000
    7        0.933833   1.000000
    8        0.934064   1.000000
    9        1.426176   1.000000
   10        1.426439   1.000000
   11        1.603310   1.000000
   12        1.603506   1.000000
   13        1.700108   1.000000
   14        3.007561   1.000000
   15        3.013579   1.000000
   16        3.013802   1.000000
   17        3.781107   0.999986
   18        3.891425   0.855750
   19        3.891457   0.855543
   20        7.106585   0.000000
   21        7.106674   0.000000
   22        7.727865   0.000000
   23        9.315346   0.000000
   24       10.209226   0.000000
 
  0.0000000E+00  0.0000000E+00  0.1525424E+00  0.4166667E-02
    1      -11.075424   1.000000
    2       -7.910986   1.000000
    3       -1.563028   1.000000
    4       -1.355196   1.000000
    5       -1.355096   1.000000
    6        0.159548   1.000000
    7        0.933307   1.000000
    8        0.933539   1.000000
    9        1.425559   1.000000
   10        1.425822   1.000000
   11        1.605318   1.000000
   12        1.605513   1.000000
   13        1.703618   1.000000
   14        2.982555   1.000000
   15        3.015479   1.000000
   16        3.015701   1.000000
   17        3.798746   0.999885
   18        3.885456   0.890695
   19        3.885488   0.890525
   20        7.114487   0.000000
   21        7.114576   0.000000
   22        7.736325   0.000000
   23        9.297308   0.000000
   24       10.226640   0.000000
 
  0.0000000E+00  0.0000000E+00  0.1610169E+00  0.4166667E-02
    1      -11.075231   1.000000
    2       -7.911919   1.000000
    3       -1.555375   1.000000
    4       -1.355361   1.000000
    5       -1.355260   1.000000
    6        0.153686   1.000000
    7        0.932678   1.000000
    8        0.932910   1.000000
    9        1.424824   1.000000
   10        1.425088   1.000000
   11        1.607216   1.000000
   12        1.607412   1.000000
   13        1.707328   1.000000
   14        2.957611   1.000000
   15        3.017421   1.000000
   16        3.017643   1.000000
   17        3.815979   0.999302
   18        3.879226   0.920203
   19        3.879258   0.920069
   20        7.122694   0.000000
   21        7.122783   0.000000
   22        7.744991   0.000000
   23        9.280100   0.000000
   24       10.243368   0.000000
 
  0.0000000E+00  0.0000000E+00  0.1694915E+00  0.4166667E-02
    1      -11.075026   1.000000
    2       -7.912878   1.000000
    3       -1.547385   1.000000
    4       -1.355373   1.000000
    5       -1.355273   1.000000
    6        0.147557   1.000000
    7        0.932119   1.000000
    8        0.932350   1.000000
    9        1.424195   1.000000
   10        1.424459   1.000000
   11        1.609333   1.000000
   12        1.609530   1.000000
   13        1.711240   1.000000
   14        2.932748   1.000000
   15        3.019513   1.000000
   16        3.019735   1.000000
   17        3.832803   0.996731
   18        3.872793   0.943902
   19        3.872825   0.943801
   20        7.131189   0.000000
   21        7.131277   0.000000
   22        7.753829   0.000000
   23        9.263799   0.000000
   24       10.259394   0.000000
 
  0.0000000E+00  0.0000000E+00  0.1779661E+00  0.4166667E-02
    1      -11.074815   1.000000
    2       -7.913864   1.000000
    3       -1.539084   1.000000
    4       -1.355386   1.000000
    5       -1.355285   1.000000
    6        0.141169   1.000000
    7        0.931545   1.000000
    8        0.931776   1.000000
    9        1.423563   1.000000
   10        1.423827   1.000000
   11        1.611497   1.000000
   12        1.611695   1.000000
   13        1.715353   1.000000
   14        2.907983   1.000000
   15        3.021699   1.000000
   16        3.021921   1.000000
   17        3.849212   0.987945
   18        3.866150   0.962157
   19        3.866182   0.962084
   20        7.139946   0.000000
   21        7.140034   0.000000
   22        7.762789   0.000000
   23        9.248463   0.000000
   24       10.274704   0.000000
 
  0.0000000E+00  0.0000000E+00  0.1864407E+00  0.4166667E-02
    1      -11.074591   1.000000
    2       -7.914873   1.000000
    3       -1.530479   1.000000
    4       -1.355391   1.000000
    5       -1.355290   1.000000
    6        0.134669   1.000000
    7        0.931317   1.000000
    8        0.931546   1.000000
    9        1.423130   1.000000
   10        1.423394   1.000000
   11        1.613731   1.000000
   12        1.613929   1.000000
   13        1.719829   1.000000
   14        2.883443   1.000000
   15        3.023982   1.000000
   16        3.024204   1.000000
   17        3.859319   0.975552
   18        3.859350   0.975502
   19        3.865204   0.964309
   20        7.148953   0.000000
   21        7.149042   0.000000
   22        7.771824   0.000000
   23        9.234165   0.000000
   24       10.289300   0.000000
 
  0.0000000E+00  0.0000000E+00  0.1949153E+00  0.4166667E-02
    1      -11.074373   1.000000
    2       -7.915910   1.000000
    3       -1.521602   1.000000
    4       -1.355403   1.000000
    5       -1.355303   1.000000
    6        0.127789   1.000000
    7        0.930711   1.000000
    8        0.930941   1.000000
    9        1.422496   1.000000
   10        1.422761   1.000000
   11        1.615970   1.000000
   12        1.616168   1.000000
   13        1.724332   1.000000
   14        2.858924   1.000000
   15        3.026349   1.000000
   16        3.026570   1.000000
   17        3.852307   0.984914
   18        3.852338   0.984880
   19        3.880773   0.913510
   20        7.158163   0.000000
   21        7.158251   0.000000
   22        7.780882   0.000000
   23        9.220936   0.000000
   24       10.303168   0.000000
 
  0.0000000E+00  0.0000000E+00  0.2033898E+00  0.4166667E-02
    1      -11.074141   1.000000
    2       -7.916966   1.000000
    3       -1.512458   1.000000
    4       -1.355415   1.000000
    5       -1.355315   1.000000
    6        0.120682   1.000000
    7        0.930294   1.000000
    8        0.930522   1.000000
    9        1.421901   1.000000
   10        1.422166   1.000000
   11        1.618239   1.000000
   12        1.618437   1.000000
   13        1.729113   1.000000
   14        2.834563   1.000000
   15        3.028804   1.000000
   16        3.029026   1.000000
   17        3.845137   0.991121
   18        3.845168   0.991100
   19        3.895918   0.824935
   20        7.167571   0.000000
   21        7.167659   0.000000
   22        7.789922   0.000000
   23        9.208850   0.000000
   24       10.316324   0.000000
 
  0.0000000E+00  0.0000000E+00  0.2118644E+00  0.4166667E-02
    1      -11.073915   1.000000
    2       -7.918031   1.000000
    3       -1.503065   1.000000
    4       -1.355505   1.000000
    5       -1.355405   1.000000
    6        0.113367   1.000000
    7        0.929466   1.000000
    8        0.929694   1.000000
    9        1.421096   1.000000
   10        1.421361   1.000000
   11        1.620372   1.000000
   12        1.620571   1.000000
   13        1.734282   1.000000
   14        2.810346   1.000000
   15        3.031236   1.000000
   16        3.031458   1.000000
   17        3.837821   0.995025
   18        3.837851   0.995013
   19        3.910638   0.697769
   20        7.177115   0.000000
   21        7.177203   0.000000
   22        7.798886   0.000000
   23        9.197879   0.000000
   24       10.328665   0.000000
 
  0.0000000E+00  0.0000000E+00  0.2203390E+00  0.4166667E-02
    1      -11.073685   1.000000
    2       -7.919118   1.000000
    3       -1.493455   1.000000
    4       -1.355517   1.000000
    5       -1.355416   1.000000
    6        0.105841   1.000000
    7        0.928819   1.000000
    8        0.929047   1.000000
    9        1.420465   1.000000
   10        1.420731   1.000000
   11        1.622673   1.000000
   12        1.622872   1.000000
   13        1.739372   1.000000
   14        2.786321   1.000000
   15        3.033848   1.000000
   16        3.034070   1.000000
   17        3.830386   0.997347
   18        3.830416   0.997340
   19        3.924925   0.545338
   20        7.186814   0.000000
   21        7.186902   0.000000
   22        7.807725   0.000000
   23        9.188192   0.000000
   24       10.340404   0.000000
 
  0.0000000E+00  0.0000000E+00  0.2288136E+00  0.4166667E-02
    1      -11.073455   1.000000
    2       -7.920215   1.000000
    3       -1.483644   1.000000
    4       -1.355538   1.000000
    5       -1.355437   1.000000
    6        0.098122   1.000000
    7        0.928141   1.000000
    8        0.928368   1.000000
    9        1.419617   1.000000
   10        1.419883   1.000000
   11        1.624968   1.000000
   12        1.625168   1.000000
   13        1.744655   1.000000
   14        2.762493   1.000000
   15        3.036532   1.000000
   16        3.036754   1.000000
   17        3.822842   0.998655
   18        3.822873   0.998652
   19        3.938780   0.390509
   20        7.196614   0.000000
   21        7.196701   0.000000
   22        7.816392   0.000000
   23        9.179752   0.000000
   24       10.351441   0.000000
 
  0.0000000E+00  0.0000000E+00  0.2372881E+00  0.4166667E-02
    1      -11.073221   1.000000
    2       -7.921318   1.000000
    3       -1.473648   1.000000
    4       -1.355551   1.000000
    5       -1.355450   1.000000
    6        0.090231   1.000000
    7        0.927489   1.000000
    8        0.927716   1.000000
    9        1.419004   1.000000
   10        1.419269   1.000000
   11        1.627276   1.000000
   12        1.627476   1.000000
   13        1.750139   1.000000
   14        2.738879   1.000000
   15        3.039287   1.000000
   16        3.039509   1.000000
   17        3.815214   0.999352
   18        3.815243   0.999350
   19        3.952202   0.255387
   20        7.206508   0.000000
   21        7.206595   0.000000
   22        7.824843   0.000000
   23        9.172629   0.000000
   24       10.361814   0.000000
 
  0.0000000E+00  0.0000000E+00  0.2457627E+00  0.4166667E-02
    1      -11.072985   1.000000
    2       -7.922426   1.000000
    3       -1.463489   1.000000
    4       -1.355563   1.000000
    5       -1.355463   1.000000
    6        0.082181   1.000000
    7        0.926837   1.000000
    8        0.927064   1.000000
    9        1.418403   1.000000
   10        1.418669   1.000000
   11        1.629580   1.000000
   12        1.629780   1.000000
   13        1.755818   1.000000
   14        2.715496   1.000000
   15        3.042106   1.000000
   16        3.042328   1.000000
   17        3.807517   0.999703
   18        3.807546   0.999702
   19        3.965191   0.152681
   20        7.216459   0.000000
   21        7.216546   0.000000
   22        7.833035   0.000000
   23        9.166836   0.000000
   24       10.371523   0.000000
 
  0.0000000E+00  0.0000000E+00  0.2542373E+00  0.4166667E-02
    1      -11.072748   1.000000
    2       -7.923534   1.000000
    3       -1.453193   1.000000
    4       -1.355575   1.000000
    5       -1.355475   1.000000
    6        0.073991   1.000000
    7        0.926188   1.000000
    8        0.926414   1.000000
    9        1.417816   1.000000
   10        1.418082   1.000000
   11        1.631872   1.000000
   12        1.632072   1.000000
   13        1.761691   1.000000
   14        2.692360   1.000000
   15        3.044984   1.000000
   16        3.045206   1.000000
   17        3.799772   0.999871
   18        3.799801   0.999870
   19        3.977744   0.083782
   20        7.226439   0.000000
   21        7.226526   0.000000
   22        7.840927   0.000000
   23        9.162394   0.000000
   24       10.380576   0.000000
 
  0.0000000E+00  0.0000000E+00  0.2627119E+00  0.4166667E-02
    1      -11.072511   1.000000
    2       -7.924640   1.000000
    3       -1.442783   1.000000
    4       -1.355588   1.000000
    5       -1.355487   1.000000
    6        0.065679   1.000000
    7        0.925542   1.000000
    8        0.925769   1.000000
    9        1.417244   1.000000
   10        1.417511   1.000000
   11        1.634147   1.000000
   12        1.634348   1.000000
   13        1.767754   1.000000
   14        2.669486   1.000000
   15        3.047915   1.000000
   16        3.048137   1.000000
   17        3.791997   0.999946
   18        3.792026   0.999946
   19        3.989863   0.042458
   20        7.236421   0.000000
   21        7.236508   0.000000
   22        7.848483   0.000000
   23        9.159317   0.000000
   24       10.388983   0.000000
 
  0.0000000E+00  0.0000000E+00  0.2711864E+00  0.4166667E-02
    1      -11.072277   1.000000
    2       -7.925744   1.000000
    3       -1.432285   1.000000
    4       -1.355599   1.000000
    5       -1.355499   1.000000
    6        0.057264   1.000000
    7        0.924903   1.000000
    8        0.925129   1.000000
    9        1.416688   1.000000
   10        1.416955   1.000000
   11        1.636399   1.000000
   12        1.636600   1.000000
   13        1.774005   1.000000
   14        2.646892   1.000000
   15        3.050893   1.000000
   16        3.051115   1.000000
   17        3.784213   0.999979
   18        3.784242   0.999979
   19        4.001547   0.020021
   20        7.246378   0.000000
   21        7.246465   0.000000
   22        7.855669   0.000000
   23        9.157613   0.000000
   24       10.396749   0.000000
 
  0.0000000E+00  0.0000000E+00  0.2796610E+00  0.4166667E-02
    1      -11.072044   1.000000
    2       -7.926838   1.000000
    3       -1.421727   1.000000
    4       -1.355611   1.000000
    5       -1.355510   1.000000
    6        0.048768   1.000000
    7        0.924271   1.000000
    8        0.924497   1.000000
    9        1.416149   1.000000
   10        1.416416   1.000000
   11        1.638622   1.000000
   12        1.638824   1.000000
   13        1.780442   1.000000
   14        2.624594   1.000000
   15        3.053910   1.000000
   16        3.054132   1.000000
   17        3.776440   0.999992
   18        3.776469   0.999992
   19        4.012795   0.008859
   20        7.256281   0.000000
   21        7.256368   0.000000
   22        7.862459   0.000000
   23        9.157278   0.000000
   24       10.403877   0.000000
 
  0.0000000E+00  0.0000000E+00  0.2881356E+00  0.4166667E-02
    1      -11.071813   1.000000
    2       -7.927921   1.000000
    3       -1.411135   1.000000
    4       -1.355622   1.000000
    5       -1.355522   1.000000
    6        0.040212   1.000000
    7        0.923648   1.000000
    8        0.923874   1.000000
    9        1.415627   1.000000
   10        1.415895   1.000000
   11        1.640812   1.000000
   12        1.641014   1.000000
   13        1.787060   1.000000
   14        2.602609   1.000000
   15        3.056959   1.000000
   16        3.057181   1.000000
   17        3.768699   0.999997
   18        3.768726   0.999997
   19        4.023607   0.003711
   20        7.266103   0.000000