    2    2    1    1
  0.5705161E+01  0.2526994E-09  0.2526994E-09  0.2526994E-09  0.5000000E-15
  1.000000000000000E-004
  CAR 
 unknown system                          
      8    360      8
 
  0.0000000E+00  0.0000000E+00  0.0000000E+00  0.2777778E-02
    1      -11.756780   1.000000
    2        9.666546   1.000000
    3        9.667643   1.000000
    4        9.667643   1.000000
    5       15.237330   0.000000
    6       15.239154   0.000000
    7       15.239154   0.000000
    8       22.835848   0.000000
 
  0.8474576E-02  0.0000000E+00  0.8474576E-02  0.2777778E-02
    1      -11.754140   1.000000
    2        9.655380   1.000000
    3        9.656161   1.000000
    4        9.660690   1.000000
    5       15.236329   0.000000
    6       15.251799   0.000000
    7       15.252967   0.000000
    8       22.838347   0.000000
 
  0.1694915E-01  0.0000000E+00  0.1694915E-01  0.2777778E-02
    1      -11.746212   1.000000
    2        9.621333   1.000000
    3        9.622077   1.000000
    4        9.640769   1.000000
    5       15.229877   0.000000
    6       15.292840   0.000000
    7       15.294046   0.000000
    8       22.845720   0.000000
 
  0.2542373E-01  0.0000000E+00  0.2542373E-01  0.2777778E-02
    1      -11.732998   1.000000
    2        9.565690   1.000000
    3        9.566427   1.000000
    4        9.607738   1.000000
    5       15.219128   0.000000
    6       15.360137   0.000000
    7       15.361351   0.000000
    8       22.857591   0.000000
 
  0.3389831E-01  0.0000000E+00  0.3389831E-01  0.2777778E-02
    1      -11.714498   1.000000
    2        9.490055   1.000000
    3        9.490789   1.000000
    4        9.561742   1.000000
    5       15.204188   0.000000
    6       15.452071   0.000000
    7       15.453289   0.000000
    8       22.873334   0.000000
 
  0.4237288E-01  0.0000000E+00  0.4237288E-01  0.2777778E-02
    1      -11.690716   1.000000
    2        9.396390   1.000000
    3        9.397121   1.000000
    4        9.503011   1.000000
    5       15.185176   0.000000
    6       15.566669   0.000000
    7       15.567891   0.000000
    8       22.892065   0.000000
 
  0.5084746E-01  0.0000000E+00  0.5084746E-01  0.2777778E-02
    1      -11.661654   1.000000
    2        9.286845   1.000000
    3        9.287575   1.000000
    4        9.431834   1.000000
    5       15.162234   0.000000
    6       15.701761   0.000000
    7       15.702987   0.000000
    8       22.912635   0.000000
 
  0.5932203E-01  0.0000000E+00  0.5932203E-01  0.2777778E-02
    1      -11.627320   1.000000
    2        9.162679   1.000000
    3        9.163406   1.000000
    4        9.340681   1.000000
    5       15.126174   0.000000
    6       15.852326   0.000000
    7       15.853552   0.000000
    8       22.929272   0.000000
 
  0.6779661E-01  0.0000000E+00  0.6779661E-01  0.2777778E-02
    1      -11.587715   1.000000
    2        9.027859   1.000000
    3        9.028583   1.000000
    4        9.245468   1.000000
    5       15.095779   0.000000
    6       16.021609   0.000000
    7       16.022841   0.000000
    8       22.948100   0.000000
 
  0.7627119E-01  0.0000000E+00  0.7627119E-01  0.2777778E-02
    1      -11.542850   1.000000
    2        8.883442   1.000000
    3        8.884164   1.000000
    4        9.138947   1.000000
    5       15.062063   0.000000
    6       16.205015   0.000000
    7       16.206253   0.000000
    8       22.963590   0.000000
 
  0.8474576E-01  0.0000000E+00  0.8474576E-01  0.2777778E-02
    1      -11.492730   1.000000
    2        8.731213   1.000000
    3        8.731932   1.000000
    4        9.021546   1.000000
    5       15.025261   0.000000
    6       16.400729   0.000000
    7       16.401974   0.000000
    8       22.973509   0.000000
 
  0.9322034E-01  0.0000000E+00  0.9322034E-01  0.2777778E-02
    1      -11.437363   1.000000
    2        8.569478   1.000000
    3        8.570203   1.000000
    4        8.889137   1.000000
    5       14.982471   0.000000
    6       16.599445   0.000000
    7       16.600747   0.000000
    8       22.970185   0.000000
 
  0.1016949E+00  0.0000000E+00  0.1016949E+00  0.2777778E-02
    1      -11.376753   1.000000
    2        8.406176   1.000000
    3        8.406898   1.000000
    4        8.751242   1.000000
    5       14.940322   0.000000
    6       16.814632   0.000000
    7       16.815945   0.000000
    8       22.960663   0.000000
 
  0.1101695E+00  0.0000000E+00  0.1101695E+00  0.2777778E-02
    1      -11.310910   1.000000
    2        8.239243   1.000000
    3        8.239960   1.000000
    4        8.603808   1.000000
    5       14.895881   0.000000
    6       17.037810   0.000000
    7       17.039136   0.000000
    8       22.937566   0.000000
 
  0.1186441E+00  0.0000000E+00  0.1186441E+00  0.2777778E-02
    1      -11.239844   1.000000
    2        8.069723   1.000000
    3        8.070436   1.000000
    4        8.447275   1.000000
    5       14.849426   0.000000
    6       17.267888   0.000000
    7       17.269227   0.000000
    8       22.898096   0.000000
 
  0.1271186E+00  0.0000000E+00  0.1271186E+00  0.2777778E-02
    1      -11.163554   1.000000
    2        7.898631   1.000000
    3        7.899338   1.000000
    4        8.282072   1.000000
    5       14.809676   0.000000
    6       17.508461   0.000000
    7       17.509815   0.000000
    8       22.839624   0.000000
 
  0.1355932E+00  0.0000000E+00  0.1355932E+00  0.2777778E-02
    1      -11.082089   1.000000
    2        7.721609   1.000000
    3        7.722349   1.000000
    4        8.102263   1.000000
    5       14.759281   0.000000
    6       17.747484   0.000000
    7       17.748862   0.000000
    8       22.750278   0.000000
 
  0.1440678E+00  0.0000000E+00  0.1440678E+00  0.2777778E-02
    1      -10.995424   1.000000
    2        7.549259   1.000000
    3        7.549993   1.000000
    4        7.921044   1.000000
    5       14.708028   0.000000
    6       17.992537   0.000000
    7       17.993933   0.000000
    8       22.647257   0.000000
 
  0.1525424E+00  0.0000000E+00  0.1525424E+00  0.2777778E-02
    1      -10.903592   1.000000
    2        7.377272   1.000000
    3        7.378001   1.000000
    4        7.732373   1.000000
    5       14.655904   0.000000
    6       18.241311   0.000000
    7       18.242724   0.000000
    8       22.520554   0.000000
 
  0.1610169E+00  0.0000000E+00  0.1610169E+00  0.2777778E-02
    1      -10.806603   1.000000
    2        7.206162   1.000000
    3        7.206886   1.000000
    4        7.536611   1.000000
    5       14.603186   0.000000
    6       18.493230   0.000000
    7       18.494661   0.000000
    8       22.370159   0.000000
 
  0.1694915E+00  0.0000000E+00  0.1694915E+00  0.2777778E-02
    1      -10.704471   1.000000
    2        7.036375   1.000000
    3        7.037094   1.000000
    4        7.334103   1.000000
    5       14.550149   0.000000
    6       18.747783   0.000000
    7       18.749233   0.000000
    8       22.196947   0.000000
 
  0.1779661E+00  0.0000000E+00  0.1779661E+00  0.2777778E-02
    1      -10.597214   1.000000
    2        6.868302   1.000000
    3        6.869016   1.000000
    4        7.125179   1.000000
    5       14.497062   0.000000
    6       19.004507   0.000000
    7       19.005976   0.000000
    8       22.002576   0.000000
 
  0.1864407E+00  0.0000000E+00  0.1864407E+00  0.2777778E-02
    1      -10.484850   1.000000
    2        6.702287   1.000000
    3        6.702996   1.000000
    4        6.910151   1.000000
    5       14.444185   0.000000
    6       19.262981   0.000000
    7       19.264470   0.000000
    8       21.789298   0.000000
 
  0.1949153E+00  0.0000000E+00  0.1949153E+00  0.2777778E-02
    1      -10.367400   1.000000
    2        6.538636   1.000000
    3        6.539340   1.000000
    4        6.689313   1.000000
    5       14.391772   0.000000
    6       19.522818   0.000000
    7       19.524329   0.000000
    8       21.559745   0.000000
 
  0.2033898E+00  0.0000000E+00  0.2033898E+00  0.2777778E-02
    1      -10.244883   1.000000
    2        6.377619   1.000000
    3        6.378319   1.000000
    4        6.462948   1.000000
    5       14.340068   0.000000
    6       19.783661   0.000000
    7       19.785192   0.000000
    8       21.316715   0.000000
 
  0.2118644E+00  0.0000000E+00  0.2118644E+00  0.2777778E-02
    1      -10.117323   1.000000
    2        6.219466   1.000000
    3        6.220175   1.000000
    4        6.231338   1.000000
    5       14.289312   0.000000
    6       20.045172   0.000000
    7       20.046726   0.000000
    8       21.062990   0.000000
 
  0.2203390E+00  0.0000000E+00  0.2203390E+00  0.2777778E-02
    1       -9.984747   1.000000
    2        5.994700   1.000000
    3        6.064437   1.000000
    4        6.065123   1.000000
    5       14.239733   0.000000
    6       20.307032   0.000000
    7       20.308609   0.000000
    8       20.801216   0.000000
 
  0.2288136E+00  0.0000000E+00  0.2288136E+00  0.2777778E-02
    1       -9.847178   1.000000
    2        5.753331   1.000000
    3        5.912676   1.000000
    4        5.913358   1.000000
    5       14.191551   0.000000
    6       20.533810   0.000000
    7       20.568937   0.000000
    8       20.570530   0.000000
 
  0.2372881E+00  0.0000000E+00  0.2372881E+00  0.2777778E-02
    1       -9.704642   1.000000
    2        5.507455   1.000000
    3        5.764376   1.000000
    4        5.765054   1.000000
    5       14.144977   0.000000
    6       20.262953   0.000000
    7       20.830568   0.000000
    8       20.832191   0.000000
 
  0.2457627E+00  0.0000000E+00  0.2457627E+00  0.2777778E-02
    1       -9.557166   1.000000
    2        5.257308   1.000000
    3        5.619697   1.000000
    4        5.620370   1.000000
    5       14.100219   0.000000
    6       19.990531   0.000000
    7       21.091647   0.000000
    8       21.093293   0.000000
 
  0.2542373E+00  0.0000000E+00  0.2542373E+00  0.2777778E-02
    1       -9.404782   1.000000
    2        5.003123   1.000000
    3        5.478781   1.000000
    4        5.479450   1.000000
    5       14.057472   0.000000
    6       19.718189   0.000000
    7       21.351867   0.000000
    8       21.353538   0.000000
 
  0.2627119E+00  0.0000000E+00  0.2627119E+00  0.2777778E-02
    1       -9.247521   1.000000
    2        4.745134   1.000000
    3        5.341758   1.000000
    4        5.342422   1.000000
    5       14.016927   0.000000
    6       19.447336   0.000000
    7       21.610931   0.000000
    8       21.612630   0.000000
 
  0.2711864E+00  0.0000000E+00  0.2711864E+00  0.2777778E-02
    1       -9.085471   1.000000
    2        4.483569   1.000000
    3        5.208510   1.000000
    4        5.209170   1.000000
    5       13.975220   0.000000
    6       19.179155   0.000000
    7       21.867317   0.000000
    8       21.869042   0.000000
 
  0.2796610E+00  0.0000000E+00  0.2796610E+00  0.2777778E-02
    1       -8.918581   1.000000
    2        4.218658   1.000000
    3        5.079608   1.000000
    4        5.080264   1.000000
    5       13.939671   0.000000
    6       18.914648   0.000000
    7       22.123044   0.000000
    8       22.124796   0.000000
 
  0.2881356E+00  0.0000000E+00  0.2881356E+00  0.2777778E-02
    1       -8.746930   1.000000
    2        3.950631   1.000000
    3        4.954925   1.000000
    4        4.955577   1.000000
    5       13.906857   0.000000
    6       18.654653   0.000000
    7       22.376647   0.000000
    8       22.378425   0.000000
 
  0.2966102E+00  0.0000000E+00  0.2966102E+00  0.2777778E-02
    1       -8.570560   1.000000
    2        3.679720   1.000000
    3        4.834553   1.000000
    4        4.835201   1.000000
    5       13.876943   0.000000
    6       18.399867   0.000000
    7       22.627772   0.000000
    8       22.629578   0.000000
 
  0.3050847E+00  0.0000000E+00  0.3050847E+00  0.2777778E-02
    1       -8.389530   1.000000
    2        3.406103   1.000000
    3        4.716266   1.000000
    4        4.716999   1.000000
    5       13.849607   0.000000
    6       18.150728   0.000000
    7       22.869518   0.000000
    8       22.871566   0.000000
 
  0.3135593E+00  0.0000000E+00  0.3135593E+00  0.2777778E-02
    1       -8.203848   1.000000
    2        3.130128   1.000000
    3        4.604770   1.000000
    4        4.605499   1.000000
    5       13.825957   0.000000
    6       17.907965   0.000000
    7       23.114191   0.000000
    8       23.116278   0.000000
 
  0.3220339E+00  0.0000000E+00  0.3220339E+00  0.2777778E-02
    1       -8.013583   1.000000
    2        2.851969   1.000000
    3        4.497814   1.000000
    4        4.498539   1.000000
    5       13.805667   0.000000
    6       17.671817   0.000000
    7       23.355178   0.000000
    8       23.357304   0.000000
 
  0.3305085E+00  0.0000000E+00  0.3305085E+00  0.2777778E-02
    1       -7.818684   1.000000
    2        2.573348   1.000000
    3        4.395470   1.000000
    4        4.396190   1.000000
    5       13.792583   0.000000
    6       17.442844   0.000000
    7       23.593977   0.000000
    8       23.596146   0.000000
 
  0.3389831E+00  0.0000000E+00  0.3389831E+00  0.2777778E-02
    1       -7.619406   1.000000
    2        2.291336   1.000000
    3        4.297784   1.000000
    4        4.298501   1.000000
    5       13.779153   0.000000
    6       17.220719   0.000000
    7       23.826102   0.000000
    8       23.828312   0.000000
 
  0.3474576E+00  0.0000000E+00  0.3474576E+00  0.2777778E-02
    1       -7.415707   1.000000
    2        2.007878   1.000000
    3        4.204820   1.000000
    4        4.205533   1.000000
    5       13.769527   0.000000
    6       17.005908   0.000000
    7       24.053047   0.000000
    8       24.055299   0.000000
 
  0.3559322E+00  0.0000000E+00  0.3559322E+00  0.2777778E-02
    1       -7.207650   1.000000
    2        1.723211   1.000000
    3        4.116627   1.000000
    4        4.117336   1.000000
    5       13.763837   0.000000
    6       16.798535   0.000000
    7       24.274237   0.000000
    8       24.276531   0.000000
 
  0.3644068E+00  0.0000000E+00  0.3644068E+00  0.2777778E-02
    1       -6.995301   1.000000
    2        1.437574   1.000000
    3        4.033251   1.000000
    4        4.033958   1.000000
    5       13.762216   0.000000
    6       16.598681   0.000000
    7       24.489054   0.000000
    8       24.491389   0.000000
 
  0.3728814E+00  0.0000000E+00  0.3728814E+00  0.2777778E-02
    1       -6.778725   1.000000
    2        1.151201   1.000000
    3        3.954736   1.000000
    4        3.955440   1.000000
    5       13.764792   0.000000
    6       16.406391   0.000000
    7       24.696842   0.000000
    8       24.699215   0.000000
 
  0.3813559E+00  0.0000000E+00  0.3813559E+00  0.2777778E-02
    1       -6.557994   1.000000
    2        0.864329   1.000000
    3        3.881121   1.000000
    4        3.881821   1.000000
    5       13.771689   0.000000
    6       16.221677   0.000000
    7       24.896877   0.000000
    8       24.899299   0.000000
 
  0.3898305E+00  0.0000000E+00  0.3898305E+00  0.2777778E-02
    1       -6.333182   1.000000
    2        0.577192   1.000000
    3        3.812442   1.000000
    4        3.813139   1.000000
    5       13.783035   0.000000
    6       16.044528   0.000000
    7       25.088424   0.000000
    8       25.090894   0.000000
 
  0.3983051E+00  0.0000000E+00  0.3983051E+00  0.2777778E-02
    1       -6.104370   1.000000
    2        0.290018   1.000000
    3        3.748731   1.000000
    4        3.749427   1.000000
    5       13.798952   0.000000
    6       15.874911   0.000000
    7       25.270684   0.000000
    8       25.273187   0.000000
 
  0.4067797E+00  0.0000000E+00  0.4067797E+00  0.2777778E-02
    1       -5.871641   1.000000
    2        0.003037   1.000000
    3        3.690020   1.000000
    4        3.690713   1.000000
    5       13.819564   0.000000
    6       15.712774   0.000000
    7       25.442847   0.000000
    8       25.445391   0.000000
 
  0.4152542E+00  0.0000000E+00  0.4152542E+00  0.2777778E-02
    1       -5.635084   1.000000
    2       -0.283530   1.000000
    3        3.636333   1.000000
    4        3.637024   1.000000
    5       13.844994   0.000000
    6       15.558050   0.000000
    7       25.604056   0.000000
    8       25.606639   0.000000
 
  0.4237288E+00  0.0000000E+00  0.4237288E+00  0.2777778E-02
    1       -5.394791   1.000000
    2       -0.569464   1.000000
    3        3.587695   1.000000
    4        3.588384   1.000000
    5       13.875364   0.000000
    6       15.410659   0.000000
    7       25.753441   0.000000
    8       25.756061   0.000000
 
  0.4322034E+00  0.0000000E+00  0.4322034E+00  0.2777778E-02
    1       -5.150864   1.000000
    2       -0.854551   1.000000
    3        3.544127   1.000000
    4        3.544814   1.000000
    5       13.910797   0.000000
    6       15.270511   0.000000
    7       25.890128   0.000000
    8       25.892784   0.000000
 
  0.4406780E+00  0.0000000E+00  0.4406780E+00  0.2777778E-02
    1       -4.903404   1.000000
    2       -1.138583   1.000000
    3        3.505649   1.000000
    4        3.506334   1.000000
    5       13.951415   0.000000
    6       15.137507   0.000000
    7       26.013256   0.000000
    8       26.015944   0.000000
 
  0.4491525E+00  0.0000000E+00  0.4491525E+00  0.2777778E-02
    1       -4.652520   1.000000
    2       -1.421357   1.000000
    3        3.472277   1.000000
    4        3.472961   1.000000
    5       13.997339   0.000000
    6       15.011540   0.000000
    7       26.121991   0.000000
    8       26.124709   0.000000
 
  0.4576271E+00  0.0000000E+00  0.4576271E+00  0.2777778E-02
    1       -4.398329   1.000000
    2       -1.703749   1.000000
    3        3.443834   1.000000
    4        3.444517   1.000000
    5       14.048685   0.000000
    6       14.888138   0.000000
    7       26.212352   0.000000
    8       26.215090   0.000000
 
  0.4661017E+00  0.0000000E+00  0.4661017E+00  0.2777778E-02
    1       -4.140943   1.000000
    2       -1.983416   1.000000
    3        3.420707   1.000000
    4        3.421387   1.000000
    5       14.105592   0.000000
    6       14.775677   0.000000
    7       26.289802   0.000000
    8       26.292563   0.000000
 
  0.4745763E+00  0.0000000E+00  0.4745763E+00  0.2777778E-02
    1       -3.880491   1.000000
    2       -2.261254   1.000000
    3        3.402720   1.000000
    4        3.403400   1.000000
    5       14.168174   0.000000
    6       14.669890   0.000000
    7       26.350734   0.000000
    8       26.353512   0.000000
 
  0.4830508E+00  0.0000000E+00  0.4830508E+00  0.2777778E-02
    1       -3.617106   1.000000
    2       -2.537086   1.000000
    3        3.389883   1.000000
    4        3.390563   1.000000
    5       14.236558   0.000000
    6       14.570654   0.000000
    7       26.394636   0.000000
    8       26.397427   0.000000
 
  0.4915254E+00  0.0000000E+00  0.4915254E+00  0.2777778E-02
    1       -3.350925   1.000000
    2       -2.810742   1.000000
    3        3.382201   1.000000
    4        3.382880   1.000000
    5       14.310866   0.000000
    6       14.477845   0.000000
    7       26.421136   0.000000
    8       26.423935   0.000000
 
  0.5000000E+00  0.0000000E+00  0.5000000E+00  0.2777778E-02
    1       -3.081946   1.000000
    2       -3.081940   1.000000
    3        3.380967   1.000000
    4        3.381632   1.000000
    5       14.391874   0.000000
    6       14.391875   0.000000
    7       26.430061   0.000000
    8       26.432861   0.000000
 
  0.5000000E+00  0.0000000E+00  0.5000000E+00  0.2777778E-02
    1       -3.081946   1.000000
    2       -3.081940   1.000000
    3        3.380967   1.000000
    4        3.381632   1.000000
    5       14.391874   0.000000
    6       14.391875   0.000000
    7       26.430061   0.000000
    8       26.432861   0.000000
 
  0.5021186E+00  0.4237288E-02  0.5021186E+00  0.2777778E-02
    1       -3.081828   1.000000
    2       -3.081820   1.000000
    3        3.377879   1.000000
    4        3.381747   1.000000
    5       14.391381   0.000000
    6       14.394362   0.000000
    7       26.404834   0.000000
    8       26.432038   0.000000
 
  0.5042373E+00  0.8474576E-02  0.5042373E+00  0.2777778E-02
    1       -3.081441   1.000000
    2       -3.080944   1.000000
    3        3.372534   1.000000
    4        3.382574   1.000000
    5       14.392170   0.000000
    6       14.401832   0.000000
    7       26.403199   0.000000
    8       26.429537   0.000000
 
  0.5063559E+00  0.1271186E-01  0.5063559E+00  0.2777778E-02
    1       -3.080861   1.000000
    2       -3.079466   1.000000
    3        3.363505   1.000000
    4        3.383954   1.000000
    5       14.393498   0.000000
    6       14.414077   0.000000
    7       26.400689   0.000000
    8       26.401474   0.000000
 
  0.5084746E+00  0.1694915E-01  0.5084746E+00  0.2777778E-02
    1       -3.079982   1.000000
    2       -3.077394   1.000000
    3        3.351134   1.000000
    4        3.385888   1.000000
    5       14.395366   0.000000
    6       14.431434   0.000000
    7       26.395541   0.000000
    8       26.397305   0.000000
 
  0.5105932E+00  0.2118644E-01  0.5105932E+00  0.2777778E-02
    1       -3.078857   1.000000
    2       -3.074728   1.000000
    3        3.335302   1.000000
    4        3.388375   1.000000
    5       14.397774   0.000000
    6       14.453688   0.000000
    7       26.387961   0.000000
    8       26.393050   0.000000
 
  0.5127119E+00  0.2542373E-01  0.5127119E+00  0.2777778E-02
    1       -3.077489   1.000000
    2       -3.071469   1.000000
    3        3.316061   1.000000
    4        3.391415   1.000000
    5       14.400721   0.000000
    6       14.480791   0.000000
    7       26.378738   0.000000
    8       26.387929   0.000000
 
  0.5148305E+00  0.2966102E-01  0.5148305E+00  0.2777778E-02
    1       -3.075883   1.000000
    2       -3.067616   1.000000
    3        3.293472   1.000000
    4        3.395007   1.000000
    5       14.404207   0.000000
    6       14.512686   0.000000
    7       26.367878   0.000000
    8       26.381948   0.000000
 
  0.5169492E+00  0.3389831E-01  0.5169492E+00  0.2777778E-02
    1       -3.074046   1.000000
    2       -3.063170   1.000000
    3        3.267604   1.000000
    4        3.399152   1.000000
    5       14.408231   0.000000
    6       14.549306   0.000000
    7       26.355391   0.000000
    8       26.375116   0.000000
 
  0.5190678E+00  0.3813559E-01  0.5190678E+00  0.2777778E-02
    1       -3.071983   1.000000
    2       -3.058130   1.000000
    3        3.238537   1.000000
    4        3.403848   1.000000
    5       14.412795   0.000000
    6       14.590576   0.000000
    7       26.341282   0.000000
    8       26.367429   0.000000
 
  0.5211864E+00  0.4237288E-01  0.5211864E+00  0.2777778E-02
    1       -3.069702   1.000000
    2       -3.052497   1.000000
    3        3.206358   1.000000
    4        3.409095   1.000000
    5       14.417896   0.000000
    6       14.636414   0.000000
    7       26.325562   0.000000
    8       26.358908   0.000000
 
  0.5233051E+00  0.4661017E-01  0.5233051E+00  0.2777778E-02
    1       -3.067212   1.000000
    2       -3.046271   1.000000
    3        3.171163   1.000000
    4        3.414893   1.000000
    5       14.423535   0.000000
    6       14.686731   0.000000
    7       26.308241   0.000000
    8       26.349557   0.000000
 
  0.5254237E+00  0.5084746E-01  0.5254237E+00  0.2777778E-02
    1       -3.064522   1.000000
    2       -3.039451   1.000000
    3        3.133053   1.000000
    4        3.421241   1.000000
    5       14.429711   0.000000
    6       14.741431   0.000000
    7       26.289332   0.000000
    8       26.339386   0.000000
 
  0.5275424E+00  0.5508475E-01  0.5275424E+00  0.2777778E-02
    1       -3.061643   1.000000
    2       -3.032039   1.000000
    3        3.092136   1.000000
    4        3.428139   1.000000
    5       14.436424   0.000000
    6       14.800414   0.000000
    7       26.268846   0.000000
    8       26.328407   0.000000
 
  0.5296610E+00  0.5932203E-01  0.5296610E+00  0.2777778E-02
    1       -3.058587   1.000000
    2       -3.024033   1.000000
    3        3.048525   1.000000
    4        3.435584   1.000000
    5       14.443674   0.000000
    6       14.863577   0.000000
    7       26.246797   0.000000
    8       26.316630   0.000000
 
  0.5317797E+00  0.6355932E-01  0.5317797E+00  0.2777778E-02
    1       -3.055358   1.000000
    2       -3.015432   1.000000
    3        3.003781   1.000000
    4        3.443578   1.000000
    5       14.451580   0.000000
    6       14.931350   0.000000
    7       26.223200   0.000000
    8       26.315988   0.000000
 
  0.5338983E+00  0.6779661E-01  0.5338983E+00  0.2777778E-02
    1       -3.051987   1.000000
    2       -3.006241   1.000000
    3        2.955082   1.000000
    4        3.452118   1.000000
    5       14.459893   0.000000
    6       15.002584   0.000000
    7       26.198069   0.000000
    8       26.302461   0.000000
 
  0.5360169E+00  0.7203390E-01  0.5360169E+00  0.2777778E-02
    1       -3.048483   1.000000
    2       -2.996458   1.000000
    3        2.904051   1.000000
    4        3.461203   1.000000
    5       14.468740   0.000000
    6       15.077665   0.000000
    7       26.171421   0.000000
    8       26.288172   0.000000
 
  0.5381356E+00  0.7627119E-01  0.5381356E+00  0.2777778E-02
    1       -3.044860   1.000000
    2       -2.986082   1.000000
    3        2.850815   1.000000
    4        3.470834   1.000000
    5       14.478122   0.000000
    6       15.156477   0.000000
    7       26.143273   0.000000
    8       26.273135   0.000000
 
  0.5402542E+00  0.8050847E-01  0.5402542E+00  0.2777778E-02
    1       -3.041139   1.000000
    2       -2.975114   1.000000
    3        2.795502   1.000000
    4        3.481008   1.000000
    5       14.488037   0.000000
    6       15.238907   0.000000
    7       26.113642   0.000000
    8       26.257365   0.000000
 
  0.5423729E+00  0.8474576E-01  0.5423729E+00  0.2777778E-02
    1       -3.037338   1.000000
    2       -2.963553   1.000000
    3        2.738242   1.000000
    4        3.491724   1.000000
    5       14.498486   0.000000
    6       15.324838   0.000000
    7       26.082548   0.000000
    8       26.240875   0.000000
 
  0.5444915E+00  0.8898305E-01  0.5444915E+00  0.2777778E-02
    1       -3.033479   1.000000
    2       -2.951401   1.000000
    3        2.679165   1.000000
    4        3.502981   1.000000
    5       14.509466   0.000000
    6       15.414155   0.000000
    7       26.050008   0.000000
    8       26.223683   0.000000
 
  0.5466102E+00  0.9322034E-01  0.5466102E+00  0.2777778E-02
    1       -3.029586   1.000000
    2       -2.938657   1.000000
    3        2.618404   1.000000
    4        3.514778   1.000000
    5       14.520977   0.000000
    6       15.506744   0.000000
    7       26.016044   0.000000
    8       26.205803   0.000000
 
  0.5487288E+00  0.9745763E-01  0.5487288E+00  0.2777778E-02
    1       -3.025683   1.000000
    2       -2.925321   1.000000
    3        2.556089   1.000000
    4        3.527113   1.000000
    5       14.533018   0.000000
    6       15.602491   0.000000
    7       25.980676   0.000000
    8       26.187250   0.000000
 
  0.5508475E+00  0.1016949E+00  0.5508475E+00  0.2777778E-02
    1       -3.021798   1.000000
    2       -2.911394   1.000000
    3        2.492353   1.000000
    4        3.539985   1.000000
    5       14.545588   0.000000
    6       15.701284   0.000000
    7       25.943924   0.000000
    8       26.168042   0.000000
 
  0.5529661E+00  0.1059322E+00  0.5529661E+00  0.2777778E-02
    1       -3.017960   1.000000
    2       -2.896876   1.000000
    3        2.427326   1.000000
    4        3.553393   1.000000
    5       14.558687   0.000000
    6       15.803014   0.000000
    7       25.905812   0.000000
    8       26.148195   0.000000
 
  0.5550847E+00  0.1101695E+00  0.5550847E+00  0.2777778E-02
    1       -3.014199   1.000000
    2       -2.881767   1.000000
    3        2.361140   1.000000
    4        3.567335   1.000000
    5       14.572312   0.000000
    6       15.907572   0.000000
    7       25.866362   0.000000
    8       26.127726   0.000000
 
  0.5572034E+00  0.1144068E+00  0.5572034E+00  0.2777778E-02
    1       -3.010549   1.000000
    2       -2.866067   1.000000
    3        2.293926   1.000000
    4        3.581809   1.000000
    5       14.586464   0.000000
    6       16.014853   0.000000
    7       25.825597   0.000000
    8       26.106651   0.000000
 
  0.5593220E+00  0.1186441E+00  0.5593220E+00  0.2777778E-02
    1       -3.006836   1.000000
    2       -2.849547   1.000000
    3        2.226210   1.000000
    4        3.596814   1.000000
    5       14.602110   0.000000
    6       16.125190   0.000000
    7       25.783538   0.000000
    8       26.090520   0.000000
 
  0.5614407E+00  0.1228814E+00  0.5614407E+00  0.2777778E-02
    1       -3.003523   1.000000
    2       -2.832666   1.000000
    3        2.157332   1.000000
    4        3.612347   1.000000
    5       14.617294   0.000000
    6       16.237590   0.000000
    7       25.740211   0.000000
    8       26.068279   0.000000
 
  0.5635593E+00  0.1271186E+00  0.5635593E+00  0.2777778E-02
    1       -3.000436   1.000000
    2       -2.815195   1.000000
    3        2.087817   1.000000
    4        3.628407   1.000000
    5       14.633001   0.000000
    6       16.352408   0.000000
    7       25.695640   0.000000
    8       26.045479   0.000000
 