   4   4   1   0
  0.2863293E+02  0.7575157E-09  0.7575157E-09  0.7575157E-09  0.5000000E-15
  1.000000000000000E-004
  CAR 
 unknown system                          
     12.35128473    -12.07504305 2001      4.11551932      1.00000000
    -12.075  0.0000E+00  0.0000E+00
    -12.063  0.0000E+00  0.0000E+00
    -12.051  0.0000E+00  0.0000E+00
    -12.038  0.0000E+00  0.0000E+00
    -12.026  0.0000E+00  0.0000E+00
    -12.014  0.0000E+00  0.0000E+00
    -12.002  0.0000E+00  0.0000E+00
    -11.990  0.0000E+00  0.0000E+00
    -11.977  0.0000E+00  0.0000E+00
    -11.965  0.0000E+00  0.0000E+00
    -11.953  0.0000E+00  0.0000E+00
    -11.941  0.0000E+00  0.0000E+00
    -11.928  0.0000E+00  0.0000E+00
    -11.916  0.0000E+00  0.0000E+00
    -11.904  0.0000E+00  0.0000E+00
    -11.892  0.0000E+00  0.0000E+00
    -11.880  0.0000E+00  0.0000E+00
    -11.867  0.0000E+00  0.0000E+00
    -11.855  0.0000E+00  0.0000E+00
    -11.843  0.0000E+00  0.0000E+00
    -11.831  0.0000E+00  0.0000E+00
    -11.819  0.0000E+00  0.0000E+00
    -11.806  0.0000E+00  0.0000E+00
    -11.794  0.0000E+00  0.0000E+00
    -11.782  0.0000E+00  0.0000E+00
    -11.770  0.0000E+00  0.0000E+00
    -11.758  0.0000E+00  0.0000E+00
    -11.745  0.0000E+00  0.0000E+00
    -11.733  0.0000E+00  0.0000E+00
    -11.721  0.0000E+00  0.0000E+00
    -11.709  0.0000E+00  0.0000E+00
    -11.696  0.0000E+00  0.0000E+00
    -11.684  0.0000E+00  0.0000E+00
    -11.672  0.0000E+00  0.0000E+00
    -11.660  0.0000E+00  0.0000E+00
    -11.648  0.0000E+00  0.0000E+00
    -11.635  0.0000E+00  0.0000E+00
    -11.623  0.0000E+00  0.0000E+00
    -11.611  0.0000E+00  0.0000E+00
    -11.599  0.0000E+00  0.0000E+00
    -11.587  0.0000E+00  0.0000E+00
    -11.574  0.0000E+00  0.0000E+00
    -11.562  0.0000E+00  0.0000E+00
    -11.550  0.0000E+00  0.0000E+00
    -11.538  0.0000E+00  0.0000E+00
    -11.525  0.0000E+00  0.0000E+00
    -11.513  0.0000E+00  0.0000E+00
    -11.501  0.0000E+00  0.0000E+00
    -11.489  0.0000E+00  0.0000E+00
    -11.477  0.0000E+00  0.0000E+00
    -11.464  0.0000E+00  0.0000E+00
    -11.452  0.0000E+00  0.0000E+00
    -11.440  0.0000E+00  0.0000E+00
    -11.428  0.0000E+00  0.0000E+00
    -11.416  0.0000E+00  0.0000E+00
    -11.403  0.0000E+00  0.0000E+00
    -11.391  0.0000E+00  0.0000E+00
    -11.379  0.0000E+00  0.0000E+00
    -11.367  0.0000E+00  0.0000E+00
    -11.354  0.0000E+00  0.0000E+00
    -11.342  0.0000E+00  0.0000E+00
    -11.330  0.0000E+00  0.0000E+00
    -11.318  0.0000E+00  0.0000E+00
    -11.306  0.0000E+00  0.0000E+00
    -11.293  0.0000E+00  0.0000E+00
    -11.281  0.0000E+00  0.0000E+00
    -11.269  0.0000E+00  0.0000E+00
    -11.257  0.2104E-16  0.2570E-18
    -11.245  0.4138E-15  0.5311E-17
    -11.232  0.6404E-14  0.8352E-16
    -11.220  0.8952E-13  0.1177E-14
    -11.208  0.1118E-11  0.1483E-13
    -11.196  0.1243E-10  0.1666E-12
    -11.183  0.1232E-09  0.1671E-11
    -11.171  0.1088E-08  0.1496E-10
    -11.159  0.8581E-08  0.1198E-09
    -11.147  0.6037E-07  0.8571E-09
    -11.135  0.3794E-06  0.5490E-08
    -11.122  0.2130E-05  0.3151E-07
    -11.110  0.1070E-04  0.1622E-06
    -11.098  0.4809E-04  0.7494E-06
    -11.086  0.1937E-03  0.3115E-05
    -11.074  0.6995E-03  0.1166E-04
    -11.061  0.2269E-02  0.3937E-04
    -11.049  0.6617E-02  0.1202E-03
    -11.037  0.1738E-01  0.3324E-03
    -11.025  0.4116E-01  0.8351E-03
    -11.012  0.8808E-01  0.1911E-02
    -11.000  0.1707E+00  0.3995E-02
    -10.988  0.3003E+00  0.7663E-02
    -10.976  0.4812E+00  0.1354E-01
    -10.964  0.7058E+00  0.2216E-01
    -10.951  0.9537E+00  0.3381E-01
    -10.939  0.1198E+01  0.4844E-01
    -10.927  0.1414E+01  0.6571E-01
    -10.915  0.1593E+01  0.8516E-01
    -10.903  0.1733E+01  0.1063E+00
    -10.890  0.1843E+01  0.1288E+00
    -10.878  0.1924E+01  0.1523E+00
    -10.866  0.1977E+01  0.1765E+00
    -10.854  0.2003E+01  0.2010E+00
    -10.842  0.2011E+01  0.2255E+00
    -10.829  0.2022E+01  0.2502E+00
    -10.817  0.2057E+01  0.2753E+00
    -10.805  0.2126E+01  0.3013E+00
    -10.793  0.2218E+01  0.3284E+00
    -10.780  0.2311E+01  0.3566E+00
    -10.768  0.2378E+01  0.3856E+00
    -10.756  0.2407E+01  0.4150E+00
    -10.744  0.2408E+01  0.4445E+00
    -10.732  0.2409E+01  0.4739E+00
    -10.719  0.2441E+01  0.5037E+00
    -10.707  0.2525E+01  0.5345E+00
    -10.695  0.2660E+01  0.5670E+00
    -10.683  0.2821E+01  0.6015E+00
    -10.671  0.2975E+01  0.6378E+00
    -10.658  0.3094E+01  0.6756E+00
    -10.646  0.3174E+01  0.7143E+00
    -10.634  0.3236E+01  0.7539E+00
    -10.622  0.3321E+01  0.7944E+00
    -10.609  0.3469E+01  0.8368E+00
    -10.597  0.3701E+01  0.8820E+00
    -10.585  0.4014E+01  0.9310E+00
    -10.573  0.4390E+01  0.9846E+00
    -10.561  0.4810E+01  0.1043E+01
    -10.548  0.5271E+01  0.1108E+01
    -10.536  0.5786E+01  0.1178E+01
    -10.524  0.6355E+01  0.1256E+01
    -10.512  0.6935E+01  0.1341E+01
    -10.500  0.7425E+01  0.1431E+01
    -10.487  0.7694E+01  0.1525E+01
    -10.475  0.7631E+01  0.1619E+01
    -10.463  0.7189E+01  0.1706E+01
    -10.451  0.6402E+01  0.1785E+01
    -10.438  0.5370E+01  0.1850E+01
    -10.426  0.4226E+01  0.1902E+01
    -10.414  0.3105E+01  0.1940E+01
    -10.402  0.2116E+01  0.1966E+01
    -10.390  0.1330E+01  0.1982E+01
    -10.377  0.7661E+00  0.1991E+01
    -10.365  0.4022E+00  0.1996E+01
    -10.353  0.1915E+00  0.1998E+01
    -10.341  0.8247E-01  0.1999E+01
    -10.329  0.3201E-01  0.2000E+01
    -10.316  0.1118E-01  0.2000E+01
    -10.304  0.3504E-02  0.2000E+01
    -10.292  0.9853E-03  0.2000E+01
    -10.280  0.2481E-03  0.2000E+01
    -10.267  0.5592E-04  0.2000E+01
    -10.255  0.1127E-04  0.2000E+01
    -10.243  0.2030E-05  0.2000E+01
    -10.231  0.3265E-06  0.2000E+01
    -10.219  0.4688E-07  0.2000E+01
    -10.206  0.6006E-08  0.2000E+01
    -10.194  0.6863E-09  0.2000E+01
    -10.182  0.6990E-10  0.2000E+01
    -10.170  0.6346E-11  0.2000E+01
    -10.158  0.5132E-12  0.2000E+01
    -10.145  0.3723E-13  0.2000E+01
    -10.133  0.2188E-14  0.2000E+01
    -10.121  0.0000E+00  0.2000E+01
    -10.109  0.0000E+00  0.2000E+01
    -10.097  0.0000E+00  0.2000E+01
    -10.084  0.0000E+00  0.2000E+01
    -10.072  0.0000E+00  0.2000E+01
    -10.060  0.0000E+00  0.2000E+01
    -10.048  0.0000E+00  0.2000E+01
    -10.035  0.0000E+00  0.2000E+01
    -10.023  0.0000E+00  0.2000E+01
    -10.011  0.0000E+00  0.2000E+01
     -9.999  0.0000E+00  0.2000E+01
     -9.987  0.0000E+00  0.2000E+01
     -9.974  0.0000E+00  0.2000E+01
     -9.962  0.0000E+00  0.2000E+01
     -9.950  0.0000E+00  0.2000E+01
     -9.938  0.0000E+00  0.2000E+01
     -9.926  0.0000E+00  0.2000E+01
     -9.913  0.0000E+00  0.2000E+01
     -9.901  0.0000E+00  0.2000E+01
     -9.889  0.0000E+00  0.2000E+01
     -9.877  0.0000E+00  0.2000E+01
     -9.864  0.0000E+00  0.2000E+01
     -9.852  0.0000E+00  0.2000E+01
     -9.840  0.0000E+00  0.2000E+01
     -9.828  0.0000E+00  0.2000E+01
     -9.816  0.0000E+00  0.2000E+01
     -9.803  0.0000E+00  0.2000E+01
     -9.791  0.0000E+00  0.2000E+01
     -9.779  0.0000E+00  0.2000E+01
     -9.767  0.0000E+00  0.2000E+01
     -9.755  0.0000E+00  0.2000E+01
     -9.742  0.0000E+00  0.2000E+01
     -9.730  0.0000E+00  0.2000E+01
     -9.718  0.0000E+00  0.2000E+01
     -9.706  0.0000E+00  0.2000E+01
     -9.693  0.0000E+00  0.2000E+01
     -9.681  0.0000E+00  0.2000E+01
     -9.669  0.0000E+00  0.2000E+01
     -9.657  0.0000E+00  0.2000E+01
     -9.645  0.0000E+00  0.2000E+01
     -9.632  0.0000E+00  0.2000E+01
     -9.620  0.0000E+00  0.2000E+01
     -9.608  0.0000E+00  0.2000E+01
     -9.596  0.0000E+00  0.2000E+01
     -9.584  0.0000E+00  0.2000E+01
     -9.571  0.0000E+00  0.2000E+01
     -9.559  0.0000E+00  0.2000E+01
     -9.547  0.0000E+00  0.2000E+01
     -9.535  0.0000E+00  0.2000E+01
     -9.522  0.0000E+00  0.2000E+01
     -9.510  0.0000E+00  0.2000E+01
     -9.498  0.0000E+00  0.2000E+01
     -9.486  0.0000E+00  0.2000E+01
     -9.474  0.0000E+00  0.2000E+01
     -9.461  0.0000E+00  0.2000E+01
     -9.449  0.0000E+00  0.2000E+01
     -9.437  0.0000E+00  0.2000E+01
     -9.425  0.0000E+00  0.2000E+01
     -9.413  0.0000E+00  0.2000E+01
     -9.400  0.0000E+00  0.2000E+01
     -9.388  0.0000E+00  0.2000E+01
     -9.376  0.0000E+00  0.2000E+01
     -9.364  0.0000E+00  0.2000E+01
     -9.352  0.0000E+00  0.2000E+01
     -9.339  0.0000E+00  0.2000E+01
     -9.327  0.0000E+00  0.2000E+01
     -9.315  0.0000E+00  0.2000E+01
     -9.303  0.0000E+00  0.2000E+01
     -9.290  0.0000E+00  0.2000E+01
     -9.278  0.0000E+00  0.2000E+01
     -9.266  0.0000E+00  0.2000E+01
     -9.254  0.0000E+00  0.2000E+01
     -9.242  0.0000E+00  0.2000E+01
     -9.229  0.0000E+00  0.2000E+01
     -9.217  0.0000E+00  0.2000E+01
     -9.205  0.0000E+00  0.2000E+01
     -9.193  0.0000E+00  0.2000E+01
     -9.181  0.0000E+00  0.2000E+01
     -9.168  0.0000E+00  0.2000E+01
     -9.156  0.0000E+00  0.2000E+01
     -9.144  0.0000E+00  0.2000E+01
     -9.132  0.0000E+00  0.2000E+01
     -9.119  0.0000E+00  0.2000E+01
     -9.107  0.0000E+00  0.2000E+01
     -9.095  0.0000E+00  0.2000E+01
     -9.083  0.0000E+00  0.2000E+01
     -9.071  0.0000E+00  0.2000E+01
     -9.058  0.0000E+00  0.2000E+01
     -9.046  0.0000E+00  0.2000E+01
     -9.034  0.0000E+00  0.2000E+01
     -9.022  0.0000E+00  0.2000E+01
     -9.010  0.0000E+00  0.2000E+01
     -8.997  0.0000E+00  0.2000E+01
     -8.985  0.0000E+00  0.2000E+01
     -8.973  0.0000E+00  0.2000E+01
     -8.961  0.0000E+00  0.2000E+01
     -8.948  0.0000E+00  0.2000E+01
     -8.936  0.0000E+00  0.2000E+01
     -8.924  0.0000E+00  0.2000E+01
     -8.912  0.0000E+00  0.2000E+01
     -8.900  0.0000E+00  0.2000E+01
     -8.887  0.0000E+00  0.2000E+01
     -8.875  0.0000E+00  0.2000E+01
     -8.863  0.0000E+00  0.2000E+01
     -8.851  0.0000E+00  0.2000E+01
     -8.839  0.0000E+00  0.2000E+01
     -8.826  0.0000E+00  0.2000E+01
     -8.814  0.0000E+00  0.2000E+01
     -8.802  0.0000E+00  0.2000E+01
     -8.790  0.0000E+00  0.2000E+01
     -8.777  0.0000E+00  0.2000E+01
     -8.765  0.0000E+00  0.2000E+01
     -8.753  0.0000E+00  0.2000E+01
     -8.741  0.0000E+00  0.2000E+01
     -8.729  0.0000E+00  0.2000E+01
     -8.716  0.0000E+00  0.2000E+01
     -8.704  0.0000E+00  0.2000E+01
     -8.692  0.0000E+00  0.2000E+01
     -8.680  0.0000E+00  0.2000E+01
     -8.668  0.0000E+00  0.2000E+01
     -8.655  0.0000E+00  0.2000E+01
     -8.643  0.0000E+00  0.2000E+01
     -8.631  0.0000E+00  0.2000E+01
     -8.619  0.0000E+00  0.2000E+01
     -8.607  0.0000E+00  0.2000E+01
     -8.594  0.0000E+00  0.2000E+01
     -8.582  0.0000E+00  0.2000E+01
     -8.570  0.0000E+00  0.2000E+01
     -8.558  0.0000E+00  0.2000E+01
     -8.545  0.0000E+00  0.2000E+01
     -8.533  0.0000E+00  0.2000E+01
     -8.521  0.0000E+00  0.2000E+01
     -8.509  0.0000E+00  0.2000E+01
     -8.497  0.0000E+00  0.2000E+01
     -8.484  0.0000E+00  0.2000E+01
     -8.472  0.0000E+00  0.2000E+01
     -8.460  0.0000E+00  0.2000E+01
     -8.448  0.0000E+00  0.2000E+01
     -8.436  0.0000E+00  0.2000E+01
     -8.423  0.0000E+00  0.2000E+01
     -8.411  0.0000E+00  0.2000E+01
     -8.399  0.0000E+00  0.2000E+01
     -8.387  0.0000E+00  0.2000E+01
     -8.374  0.0000E+00  0.2000E+01
     -8.362  0.0000E+00  0.2000E+01
     -8.350  0.0000E+00  0.2000E+01
     -8.338  0.0000E+00  0.2000E+01
     -8.326  0.1403E-16  0.2000E+01
     -8.313  0.3086E-15  0.2000E+01
     -8.301  0.5148E-14  0.2000E+01
     -8.289  0.7260E-13  0.2000E+01
     -8.277  0.9133E-12  0.2000E+01
     -8.265  0.1023E-10  0.2000E+01
     -8.252  0.1022E-09  0.2000E+01
     -8.240  0.9096E-09  0.2000E+01
     -8.228  0.7221E-08  0.2000E+01
     -8.216  0.5115E-07  0.2000E+01
     -8.203  0.3236E-06  0.2000E+01
     -8.191  0.1829E-05  0.2000E+01
     -8.179  0.9251E-05  0.2000E+01
     -8.167  0.4189E-04  0.2000E+01
     -8.155  0.1701E-03  0.2000E+01
     -8.142  0.6200E-03  0.2000E+01
     -8.130  0.2033E-02  0.2000E+01
     -8.118  0.6008E-02  0.2000E+01
     -8.106  0.1604E-01  0.2000E+01
     -8.094  0.3877E-01  0.2001E+01
     -8.081  0.8515E-01  0.2002E+01
     -8.069  0.1704E+00  0.2004E+01
     -8.057  0.3122E+00  0.2008E+01
     -8.045  0.5257E+00  0.2014E+01
     -8.032  0.8175E+00  0.2024E+01
     -8.020  0.1181E+01  0.2039E+01
     -8.008  0.1595E+01  0.2058E+01
     -7.996  0.2028E+01  0.2083E+01
     -7.984  0.2446E+01  0.2113E+01
     -7.971  0.2822E+01  0.2147E+01
     -7.959  0.3145E+01  0.2186E+01
     -7.947  0.3417E+01  0.2227E+01
     -7.935  0.3652E+01  0.2272E+01
     -7.923  0.3866E+01  0.2319E+01
     -7.910  0.4078E+01  0.2369E+01
     -7.898  0.4302E+01  0.2421E+01
     -7.886  0.4554E+01  0.2477E+01
     -7.874  0.4851E+01  0.2536E+01
     -7.862  0.5213E+01  0.2600E+01
     -7.849  0.5662E+01  0.2669E+01
     -7.837  0.6227E+01  0.2745E+01
     -7.825  0.6937E+01  0.2830E+01
     -7.813  0.7805E+01  0.2925E+01
     -7.800  0.8794E+01  0.3033E+01
     -7.788  0.9797E+01  0.3152E+01
     -7.776  0.1063E+02  0.3282E+01
     -7.764  0.1105E+02  0.3417E+01
     -7.752  0.1086E+02  0.3550E+01
     -7.739  0.9986E+01  0.3672E+01
     -7.727  0.8513E+01  0.3776E+01
     -7.715  0.6683E+01  0.3857E+01
     -7.703  0.4806E+01  0.3916E+01
     -7.691  0.3152E+01  0.3954E+01
     -7.678  0.1879E+01  0.3977E+01
     -7.666  0.1015E+01  0.3990E+01
     -7.654  0.4960E+00  0.3996E+01
     -7.642  0.2186E+00  0.3998E+01
     -7.629  0.8679E-01  0.3999E+01
     -7.617  0.3098E-01  0.4000E+01
     -7.605  0.9925E-02  0.4000E+01
     -7.593  0.2851E-02  0.4000E+01
     -7.581  0.7336E-03  0.4000E+01
     -7.568  0.1689E-03  0.4000E+01
     -7.556  0.3476E-04  0.4000E+01
     -7.544  0.6392E-05  0.4000E+01
     -7.532  0.1049E-05  0.4000E+01
     -7.520  0.1537E-06  0.4000E+01
     -7.507  0.2008E-07  0.4000E+01
     -7.495  0.2338E-08  0.4000E+01
     -7.483  0.2427E-09  0.4000E+01
     -7.471  0.2245E-10  0.4000E+01
     -7.458  0.1849E-11  0.4000E+01
     -7.446  0.1352E-12  0.4000E+01
     -7.434  0.8978E-14  0.4000E+01
     -7.422  0.2525E-15  0.4000E+01
     -7.410  0.0000E+00  0.4000E+01
     -7.397  0.0000E+00  0.4000E+01
     -7.385  0.0000E+00  0.4000E+01
     -7.373  0.0000E+00  0.4000E+01
     -7.361  0.0000E+00  0.4000E+01
     -7.349  0.0000E+00  0.4000E+01
     -7.336  0.0000E+00  0.4000E+01
     -7.324  0.0000E+00  0.4000E+01
     -7.312  0.0000E+00  0.4000E+01
     -7.300  0.0000E+00  0.4000E+01
     -7.287  0.0000E+00  0.4000E+01
     -7.275  0.0000E+00  0.4000E+01
     -7.263  0.0000E+00  0.4000E+01
     -7.251  0.0000E+00  0.4000E+01
     -7.239  0.0000E+00  0.4000E+01
     -7.226  0.0000E+00  0.4000E+01
     -7.214  0.0000E+00  0.4000E+01
     -7.202  0.0000E+00  0.4000E+01
     -7.190  0.0000E+00  0.4000E+01
     -7.178  0.0000E+00  0.4000E+01
     -7.165  0.0000E+00  0.4000E+01
     -7.153  0.0000E+00  0.4000E+01
     -7.141  0.0000E+00  0.4000E+01
     -7.129  0.0000E+00  0.4000E+01
     -7.116  0.0000E+00  0.4000E+01
     -7.104  0.0000E+00  0.4000E+01
     -7.092  0.0000E+00  0.4000E+01
     -7.080  0.0000E+00  0.4000E+01
     -7.068  0.0000E+00  0.4000E+01
     -7.055  0.0000E+00  0.4000E+01
     -7.043  0.0000E+00  0.4000E+01
     -7.031  0.0000E+00  0.4000E+01
     -7.019  0.0000E+00  0.4000E+01
     -7.007  0.0000E+00  0.4000E+01
     -6.994  0.0000E+00  0.4000E+01
     -6.982  0.0000E+00  0.4000E+01
     -6.970  0.0000E+00  0.4000E+01
     -6.958  0.0000E+00  0.4000E+01
     -6.946  0.0000E+00  0.4000E+01
     -6.933  0.0000E+00  0.4000E+01
     -6.921  0.0000E+00  0.4000E+01
     -6.909  0.0000E+00  0.4000E+01
     -6.897  0.0000E+00  0.4000E+01
     -6.884  0.0000E+00  0.4000E+01
     -6.872  0.0000E+00  0.4000E+01
     -6.860  0.0000E+00  0.4000E+01
     -6.848  0.0000E+00  0.4000E+01
     -6.836  0.0000E+00  0.4000E+01
     -6.823  0.0000E+00  0.4000E+01
     -6.811  0.0000E+00  0.4000E+01
     -6.799  0.0000E+00  0.4000E+01
     -6.787  0.0000E+00  0.4000E+01
     -6.775  0.0000E+00  0.4000E+01
     -6.762  0.0000E+00  0.4000E+01
     -6.750  0.0000E+00  0.4000E+01
     -6.738  0.0000E+00  0.4000E+01
     -6.726  0.0000E+00  0.4000E+01
     -6.713  0.0000E+00  0.4000E+01
     -6.701  0.0000E+00  0.4000E+01
     -6.689  0.0000E+00  0.4000E+01
     -6.677  0.0000E+00  0.4000E+01
     -6.665  0.0000E+00  0.4000E+01
     -6.652  0.0000E+00  0.4000E+01
     -6.640  0.0000E+00  0.4000E+01
     -6.628  0.0000E+00  0.4000E+01
     -6.616  0.0000E+00  0.4000E+01
     -6.604  0.0000E+00  0.4000E+01
     -6.591  0.0000E+00  0.4000E+01
     -6.579  0.0000E+00  0.4000E+01
     -6.567  0.0000E+00  0.4000E+01
     -6.555  0.0000E+00  0.4000E+01
     -6.542  0.0000E+00  0.4000E+01
     -6.530  0.0000E+00  0.4000E+01
     -6.518  0.0000E+00  0.4000E+01
     -6.506  0.0000E+00  0.4000E+01
     -6.494  0.0000E+00  0.4000E+01
     -6.481  0.0000E+00  0.4000E+01
     -6.469  0.0000E+00  0.4000E+01
     -6.457  0.0000E+00  0.4000E+01
     -6.445  0.0000E+00  0.4000E+01
     -6.433  0.0000E+00  0.4000E+01
     -6.420  0.0000E+00  0.4000E+01
     -6.408  0.0000E+00  0.4000E+01
     -6.396  0.0000E+00  0.4000E+01
     -6.384  0.0000E+00  0.4000E+01
     -6.371  0.0000E+00  0.4000E+01
     -6.359  0.0000E+00  0.4000E+01
     -6.347  0.0000E+00  0.4000E+01
     -6.335  0.0000E+00  0.4000E+01
     -6.323  0.0000E+00  0.4000E+01
     -6.310  0.0000E+00  0.4000E+01
     -6.298  0.0000E+00  0.4000E+01
     -6.286  0.0000E+00  0.4000E+01
     -6.274  0.0000E+00  0.4000E+01
     -6.262  0.0000E+00  0.4000E+01
     -6.249  0.0000E+00  0.4000E+01
     -6.237  0.0000E+00  0.4000E+01
     -6.225  0.0000E+00  0.4000E+01
     -6.213  0.0000E+00  0.4000E+01
     -6.201  0.0000E+00  0.4000E+01
     -6.188  0.0000E+00  0.4000E+01
     -6.176  0.0000E+00  0.4000E+01
     -6.164  0.0000E+00  0.4000E+01
     -6.152  0.0000E+00  0.4000E+01
     -6.139  0.0000E+00  0.4000E+01
     -6.127  0.0000E+00  0.4000E+01
     -6.115  0.0000E+00  0.4000E+01
     -6.103  0.0000E+00  0.4000E+01
     -6.091  0.0000E+00  0.4000E+01
     -6.078  0.0000E+00  0.4000E+01
     -6.066  0.0000E+00  0.4000E+01
     -6.054  0.0000E+00  0.4000E+01
     -6.042  0.0000E+00  0.4000E+01
     -6.030  0.0000E+00  0.4000E+01
     -6.017  0.0000E+00  0.4000E+01
     -6.005  0.0000E+00  0.4000E+01
     -5.993  0.0000E+00  0.4000E+01
     -5.981  0.0000E+00  0.4000E+01
     -5.968  0.0000E+00  0.4000E+01
     -5.956  0.0000E+00  0.4000E+01
     -5.944  0.0000E+00  0.4000E+01
     -5.932  0.0000E+00  0.4000E+01
     -5.920  0.0000E+00  0.4000E+01
     -5.907  0.0000E+00  0.4000E+01
     -5.895  0.0000E+00  0.4000E+01
     -5.883  0.0000E+00  0.4000E+01
     -5.871  0.0000E+00  0.4000E+01
     -5.859  0.0000E+00  0.4000E+01
     -5.846  0.0000E+00  0.4000E+01
     -5.834  0.0000E+00  0.4000E+01
     -5.822  0.0000E+00  0.4000E+01
     -5.810  0.0000E+00  0.4000E+01
     -5.797  0.0000E+00  0.4000E+01
     -5.785  0.0000E+00  0.4000E+01
     -5.773  0.0000E+00  0.4000E+01
     -5.761  0.0000E+00  0.4000E+01
     -5.749  0.0000E+00  0.4000E+01
     -5.736  0.0000E+00  0.4000E+01
     -5.724  0.0000E+00  0.4000E+01
     -5.712  0.0000E+00  0.4000E+01
     -5.700  0.0000E+00  0.4000E+01
     -5.688  0.0000E+00  0.4000E+01
     -5.675  0.0000E+00  0.4000E+01
     -5.663  0.0000E+00  0.4000E+01
     -5.651  0.0000E+00  0.4000E+01
     -5.639  0.0000E+00  0.4000E+01
     -5.626  0.0000E+00  0.4000E+01
     -5.614  0.0000E+00  0.4000E+01
     -5.602  0.0000E+00  0.4000E+01
     -5.590  0.0000E+00  0.4000E+01
     -5.578  0.0000E+00  0.4000E+01
     -5.565  0.0000E+00  0.4000E+01
     -5.553  0.0000E+00  0.4000E+01
     -5.541  0.0000E+00  0.4000E+01
     -5.529  0.0000E+00  0.4000E+01
     -5.517  0.0000E+00  0.4000E+01
     -5.504  0.0000E+00  0.4000E+01
     -5.492  0.0000E+00  0.4000E+01
     -5.480  0.0000E+00  0.4000E+01
     -5.468  0.0000E+00  0.4000E+01
     -5.456  0.0000E+00  0.4000E+01
     -5.443  0.0000E+00  0.4000E+01
     -5.431  0.0000E+00  0.4000E+01
     -5.419  0.0000E+00  0.4000E+01
     -5.407  0.0000E+00  0.4000E+01
     -5.394  0.0000E+00  0.4000E+01
     -5.382  0.0000E+00  0.4000E+01
     -5.370  0.0000E+00  0.4000E+01
     -5.358  0.0000E+00  0.4000E+01
     -5.346  0.0000E+00  0.4000E+01
     -5.333  0.0000E+00  0.4000E+01
     -5.321  0.0000E+00  0.4000E+01
     -5.309  0.0000E+00  0.4000E+01
     -5.297  0.0000E+00  0.4000E+01
     -5.285  0.0000E+00  0.4000E+01
     -5.272  0.0000E+00  0.4000E+01
     -5.260  0.0000E+00  0.4000E+01
     -5.248  0.0000E+00  0.4000E+01
     -5.236  0.0000E+00  0.4000E+01
     -5.223  0.0000E+00  0.4000E+01
     -5.211  0.0000E+00  0.4000E+01
     -5.199  0.0000E+00  0.4000E+01
     -5.187  0.0000E+00  0.4000E+01
     -5.175  0.0000E+00  0.4000E+01
     -5.162  0.0000E+00  0.4000E+01
     -5.150  0.0000E+00  0.4000E+01
     -5.138  0.0000E+00  0.4000E+01
     -5.126  0.0000E+00  0.4000E+01
     -5.114  0.0000E+00  0.4000E+01
     -5.101  0.0000E+00  0.4000E+01
     -5.089  0.0000E+00  0.4000E+01
     -5.077  0.0000E+00  0.4000E+01
     -5.065  0.0000E+00  0.4000E+01
     -5.052  0.0000E+00  0.4000E+01
     -5.040  0.0000E+00  0.4000E+01
     -5.028  0.0000E+00  0.4000E+01
     -5.016  0.0000E+00  0.4000E+01
     -5.004  0.0000E+00  0.4000E+01
     -4.991  0.0000E+00  0.4000E+01
     -4.979  0.0000E+00  0.4000E+01
     -4.967  0.0000E+00  0.4000E+01
     -4.955  0.0000E+00  0.4000E+01
     -4.943  0.0000E+00  0.4000E+01
     -4.930  0.0000E+00  0.4000E+01
     -4.918  0.0000E+00  0.4000E+01
     -4.906  0.0000E+00  0.4000E+01
     -4.894  0.0000E+00  0.4000E+01
     -4.881  0.0000E+00  0.4000E+01
     -4.869  0.0000E+00  0.4000E+01
     -4.857  0.0000E+00  0.4000E+01
     -4.845  0.0000E+00  0.4000E+01
     -4.833  0.0000E+00  0.4000E+01
     -4.820  0.0000E+00  0.4000E+01
     -4.808  0.0000E+00  0.4000E+01
     -4.796  0.0000E+00  0.4000E+01
     -4.784  0.0000E+00  0.4000E+01
     -4.772  0.0000E+00  0.4000E+01
     -4.759  0.0000E+00  0.4000E+01
     -4.747  0.0000E+00  0.4000E+01
     -4.735  0.0000E+00  0.4000E+01
     -4.723  0.0000E+00  0.4000E+01
     -4.711  0.0000E+00  0.4000E+01
     -4.698  0.0000E+00  0.4000E+01
     -4.686  0.0000E+00  0.4000E+01
     -4.674  0.0000E+00  0.4000E+01
     -4.662  0.0000E+00  0.4000E+01
     -4.649  0.0000E+00  0.4000E+01
     -4.637  0.0000E+00  0.4000E+01
     -4.625  0.0000E+00  0.4000E+01
     -4.613  0.0000E+00  0.4000E+01
     -4.601  0.0000E+00  0.4000E+01
     -4.588  0.0000E+00  0.4000E+01
     -4.576  0.0000E+00  0.4000E+01
     -4.564  0.0000E+00  0.4000E+01
     -4.552  0.0000E+00  0.4000E+01
     -4.540  0.0000E+00  0.4000E+01
     -4.527  0.0000E+00  0.4000E+01
     -4.515  0.0000E+00  0.4000E+01
     -4.503  0.0000E+00  0.4000E+01
     -4.491  0.0000E+00  0.4000E+01
     -4.478  0.0000E+00  0.4000E+01
     -4.466  0.0000E+00  0.4000E+01
     -4.454  0.0000E+00  0.4000E+01
     -4.442  0.0000E+00  0.4000E+01
     -4.430  0.0000E+00  0.4000E+01
     -4.417  0.0000E+00  0.4000E+01
     -4.405  0.0000E+00  0.4000E+01
     -4.393  0.0000E+00  0.4000E+01
     -4.381  0.0000E+00  0.4000E+01
     -4.369  0.0000E+00  0.4000E+01
     -4.356  0.0000E+00  0.4000E+01
     -4.344  0.0000E+00  0.4000E+01
     -4.332  0.0000E+00  0.4000E+01
     -4.320  0.0000E+00  0.4000E+01
     -4.307  0.0000E+00  0.4000E+01
     -4.295  0.0000E+00  0.4000E+01
     -4.283  0.0000E+00  0.4000E+01
     -4.271  0.0000E+00  0.4000E+01
     -4.259  0.0000E+00  0.4000E+01
     -4.246  0.0000E+00  0.4000E+01
     -4.234  0.0000E+00  0.4000E+01
     -4.222  0.0000E+00  0.4000E+01
     -4.210  0.0000E+00  0.4000E+01
     -4.198  0.0000E+00  0.4000E+01
     -4.185  0.0000E+00  0.4000E+01
     -4.173  0.0000E+00  0.4000E+01
     -4.161  0.0000E+00  0.4000E+01
     -4.149  0.0000E+00  0.4000E+01
     -4.136  0.0000E+00  0.4000E+01
     -4.124  0.0000E+00  0.4000E+01
     -4.112  0.0000E+00  0.4000E+01
     -4.100  0.0000E+00  0.4000E+01
     -4.088  0.0000E+00  0.4000E+01
     -4.075  0.0000E+00  0.4000E+01
     -4.063  0.0000E+00  0.4000E+01
     -4.051  0.0000E+00  0.4000E+01
     -4.039  0.0000E+00  0.4000E+01
     -4.027  0.0000E+00  0.4000E+01
     -4.014  0.0000E+00  0.4000E+01
     -4.002  0.0000E+00  0.4000E+01
     -3.990  0.0000E+00  0.4000E+01
     -3.978  0.0000E+00  0.4000E+01
     -3.966  0.0000E+00  0.4000E+01
     -3.953  0.0000E+00  0.4000E+01
     -3.941  0.0000E+00  0.4000E+01
     -3.929  0.0000E+00  0.4000E+01
     -3.917  0.0000E+00  0.4000E+01
     -3.904  0.0000E+00  0.4000E+01
     -3.892  0.0000E+00  0.4000E+01
     -3.880  0.0000E+00  0.4000E+01
     -3.868  0.0000E+00  0.4000E+01
     -3.856  0.0000E+00  0.4000E+01
     -3.843  0.0000E+00  0.4000E+01
     -3.831  0.0000E+00  0.4000E+01
     -3.819  0.0000E+00  0.4000E+01
     -3.807  0.0000E+00  0.4000E+01
     -3.795  0.0000E+00  0.4000E+01
     -3.782  0.0000E+00  0.4000E+01
     -3.770  0.0000E+00  0.4000E+01
     -3.758  0.0000E+00  0.4000E+01
     -3.746  0.0000E+00  0.4000E+01
     -3.733  0.0000E+00  0.4000E+01
     -3.721  0.0000E+00  0.4000E+01
     -3.709  0.0000E+00  0.4000E+01
     -3.697  0.0000E+00  0.4000E+01
     -3.685  0.0000E+00  0.4000E+01
     -3.672  0.0000E+00  0.4000E+01
     -3.660  0.0000E+00  0.4000E+01
     -3.648  0.0000E+00  0.4000E+01
     -3.636  0.0000E+00  0.4000E+01
     -3.624  0.0000E+00  0.4000E+01
     -3.611  0.0000E+00  0.4000E+01
     -3.599  0.0000E+00  0.4000E+01
     -3.587  0.0000E+00  0.4000E+01
     -3.575  0.7014E-17  0.4000E+01
     -3.562  0.1543E-15  0.4000E+01
     -3.550  0.2371E-14  0.4000E+01
     -3.538  0.3273E-13  0.4000E+01
     -3.526  0.4027E-12  0.4000E+01
     -3.514  0.4420E-11  0.4000E+01
     -3.501  0.4329E-10  0.4000E+01
     -3.489  0.3785E-09  0.4000E+01
     -3.477  0.2956E-08  0.4000E+01
     -3.465  0.2063E-07  0.4000E+01
     -3.453  0.1288E-06  0.4000E+01
     -3.440  0.7194E-06  0.4000E+01
     -3.428  0.3598E-05  0.4000E+01
     -3.416  0.1612E-04  0.4000E+01
     -3.404  0.6477E-04  0.4000E+01
     -3.391  0.2335E-03  0.4000E+01
     -3.379  0.7557E-03  0.4000E+01
     -3.367  0.2199E-02  0.4000E+01
     -3.355  0.5755E-02  0.4000E+01
     -3.343  0.1358E-01  0.4000E+01
     -3.330  0.2894E-01  0.4001E+01
     -3.318  0.5591E-01  0.4001E+01
     -3.306  0.9844E-01  0.4003E+01
     -3.294  0.1592E+00  0.4004E+01
     -3.282  0.2389E+00  0.4007E+01
     -3.269  0.3372E+00  0.4011E+01
     -3.257  0.4544E+00  0.4017E+01
     -3.245  0.5917E+00  0.4024E+01
     -3.233  0.7498E+00  0.4033E+01
     -3.220  0.9258E+00  0.4045E+01
     -3.208  0.1111E+01  0.4058E+01
     -3.196  0.1293E+01  0.4074E+01
     -3.184  0.1459E+01  0.4092E+01
     -3.172  0.1601E+01  0.4111E+01
     -3.159  0.1717E+01  0.4132E+01
     -3.147  0.1810E+01  0.4155E+01
     -3.135  0.1885E+01  0.4178E+01
     -3.123  0.1949E+01  0.4201E+01
     -3.111  0.2008E+01  0.4226E+01
     -3.098  0.2063E+01  0.4251E+01
     -3.086  0.2117E+01  0.4277E+01
     -3.074  0.2170E+01  0.4303E+01
     -3.062  0.2225E+01  0.4331E+01
     -3.050  0.2286E+01  0.4359E+01
     -3.037  0.2360E+01  0.4387E+01
     -3.025  0.2447E+01  0.4417E+01
     -3.013  0.2543E+01  0.4448E+01
     -3.001  0.2636E+01  0.4481E+01
     -2.988  0.2716E+01  0.4514E+01
     -2.976  0.2781E+01  0.4548E+01
     -2.964  0.2841E+01  0.4582E+01
     -2.952  0.2910E+01  0.4618E+01
     -2.940  0.2997E+01  0.4654E+01
     -2.927  0.3096E+01  0.4692E+01
     -2.915  0.3190E+01  0.4731E+01
     -2.903  0.3261E+01  0.4771E+01
     -2.891  0.3295E+01  0.4811E+01
     -2.879  0.3286E+01  0.4851E+01
     -2.866  0.3237E+01  0.4891E+01
     -2.854  0.3151E+01  0.4929E+01
     -2.842  0.3031E+01  0.4966E+01
     -2.830  0.2875E+01  0.5002E+01
     -2.817  0.2682E+01  0.5034E+01
     -2.805  0.2458E+01  0.5064E+01
     -2.793  0.2219E+01  0.5091E+01
     -2.781  0.1990E+01  0.5116E+01
     -2.769  0.1793E+01  0.5138E+01
     -2.756  0.1641E+01  0.5158E+01
     -2.744  0.1531E+01  0.5176E+01
     -2.732  0.1444E+01  0.5194E+01
     -2.720  0.1361E+01  0.5211E+01
     -2.708  0.1270E+01  0.5226E+01
     -2.695  0.1178E+01  0.5241E+01
     -2.683  0.1100E+01  0.5254E+01
     -2.671  0.1052E+01  0.5267E+01
     -2.659  0.1036E+01  0.5280E+01
     -2.646  0.1038E+01  0.5292E+01
     -2.634  0.1039E+01  0.5305E+01
     -2.622  0.1025E+01  0.5317E+01
     -2.610  0.9955E+00  0.5330E+01
     -2.598  0.9638E+00  0.5341E+01
     -2.585  0.9441E+00  0.5353E+01
     -2.573  0.9436E+00  0.5364E+01
     -2.561  0.9602E+00  0.5376E+01
     -2.549  0.9854E+00  0.5388E+01
     -2.537  0.1010E+01  0.5400E+01
     -2.524  0.1026E+01  0.5413E+01
     -2.512  0.1026E+01  0.5426E+01
     -2.500  0.1003E+01  0.5438E+01
     -2.488  0.9575E+00  0.5449E+01
     -2.475  0.8946E+00  0.5460E+01
     -2.463  0.8275E+00  0.5471E+01
     -2.451  0.7702E+00  0.5480E+01
     -2.439  0.7310E+00  0.5489E+01
     -2.427  0.7101E+00  0.5498E+01
     -2.414  0.7030E+00  0.5506E+01
     -2.402  0.7065E+00  0.5515E+01
     -2.390  0.7220E+00  0.5524E+01
     -2.378  0.7538E+00  0.5533E+01
     -2.366  0.8031E+00  0.5543E+01
     -2.353  0.8632E+00  0.5553E+01
     -2.341  0.9198E+00  0.5564E+01
     -2.329  0.9570E+00  0.5576E+01
     -2.317  0.9656E+00  0.5588E+01
     -2.305  0.9496E+00  0.5599E+01
     -2.292  0.9257E+00  0.5611E+01
     -2.280  0.9157E+00  0.5622E+01
     -2.268  0.9373E+00  0.5633E+01
     -2.256  0.9955E+00  0.5646E+01
     -2.243  0.1082E+01  0.5659E+01
     -2.231  0.1179E+01  0.5673E+01
     -2.219  0.1270E+01  0.5689E+01
     -2.207  0.1346E+01  0.5705E+01
     -2.195  0.1404E+01  0.5722E+01
     -2.182  0.1446E+01  0.5740E+01
     -2.170  0.1472E+01  0.5758E+01
     -2.158  0.1480E+01  0.5776E+01
     -2.146  0.1468E+01  0.5794E+01
     -2.134  0.1434E+01  0.5811E+01
     -2.121  0.1386E+01  0.5828E+01
     -2.109  0.1331E+01  0.5845E+01
     -2.097  0.1275E+01  0.5860E+01
     -2.085  0.1224E+01  0.5875E+01
     -2.072  0.1179E+01  0.5889E+01
     -2.060  0.1140E+01  0.5903E+01
     -2.048  0.1108E+01  0.5917E+01
     -2.036  0.1085E+01  0.5930E+01
     -2.024  0.1074E+01  0.5943E+01
     -2.011  0.1080E+01  0.5957E+01
     -1.999  0.1107E+01  0.5970E+01