   2   2   1   0
  0.2045331E+02  0.3867552E-09  0.3867552E-09  0.3867552E-09  0.5000000E-15
  1.000000000000000E-004
  CAR 
                                         
     46.40078539     -8.70485521 2001      5.84314154      1.00000000
     -8.705  0.0000E+00  0.0000E+00
     -8.677  0.0000E+00  0.0000E+00
     -8.650  0.0000E+00  0.0000E+00
     -8.622  0.0000E+00  0.0000E+00
     -8.595  0.0000E+00  0.0000E+00
     -8.567  0.0000E+00  0.0000E+00
     -8.540  0.0000E+00  0.0000E+00
     -8.512  0.0000E+00  0.0000E+00
     -8.484  0.0000E+00  0.0000E+00
     -8.457  0.0000E+00  0.0000E+00
     -8.429  0.0000E+00  0.0000E+00
     -8.402  0.0000E+00  0.0000E+00
     -8.374  0.0000E+00  0.0000E+00
     -8.347  0.0000E+00  0.0000E+00
     -8.319  0.0000E+00  0.0000E+00
     -8.292  0.0000E+00  0.0000E+00
     -8.264  0.0000E+00  0.0000E+00
     -8.236  0.0000E+00  0.0000E+00
     -8.209  0.0000E+00  0.0000E+00
     -8.181  0.0000E+00  0.0000E+00
     -8.154  0.0000E+00  0.0000E+00
     -8.126  0.0000E+00  0.0000E+00
     -8.099  0.0000E+00  0.0000E+00
     -8.071  0.0000E+00  0.0000E+00
     -8.044  0.0000E+00  0.0000E+00
     -8.016  0.0000E+00  0.0000E+00
     -7.988  0.0000E+00  0.0000E+00
     -7.961  0.0000E+00  0.0000E+00
     -7.933  0.0000E+00  0.0000E+00
     -7.906  0.0000E+00  0.0000E+00
     -7.878  0.0000E+00  0.0000E+00
     -7.851  0.0000E+00  0.0000E+00
     -7.823  0.0000E+00  0.0000E+00
     -7.796  0.0000E+00  0.0000E+00
     -7.768  0.0000E+00  0.0000E+00
     -7.741  0.0000E+00  0.0000E+00
     -7.713  0.0000E+00  0.0000E+00
     -7.685  0.0000E+00  0.0000E+00
     -7.658  0.0000E+00  0.0000E+00
     -7.630  0.0000E+00  0.0000E+00
     -7.603  0.0000E+00  0.0000E+00
     -7.575  0.0000E+00  0.0000E+00
     -7.548  0.0000E+00  0.0000E+00
     -7.520  0.0000E+00  0.0000E+00
     -7.493  0.0000E+00  0.0000E+00
     -7.465  0.0000E+00  0.0000E+00
     -7.437  0.0000E+00  0.0000E+00
     -7.410  0.0000E+00  0.0000E+00
     -7.382  0.0000E+00  0.0000E+00
     -7.355  0.0000E+00  0.0000E+00
     -7.327  0.0000E+00  0.0000E+00
     -7.300  0.0000E+00  0.0000E+00
     -7.272  0.0000E+00  0.0000E+00
     -7.245  0.0000E+00  0.0000E+00
     -7.217  0.0000E+00  0.0000E+00
     -7.189  0.0000E+00  0.0000E+00
     -7.162  0.0000E+00  0.0000E+00
     -7.134  0.0000E+00  0.0000E+00
     -7.107  0.0000E+00  0.0000E+00
     -7.079  0.0000E+00  0.0000E+00
     -7.052  0.0000E+00  0.0000E+00
     -7.024  0.0000E+00  0.0000E+00
     -6.997  0.0000E+00  0.0000E+00
     -6.969  0.0000E+00  0.0000E+00
     -6.941  0.0000E+00  0.0000E+00
     -6.914  0.0000E+00  0.0000E+00
     -6.886  0.0000E+00  0.0000E+00
     -6.859  0.0000E+00  0.0000E+00
     -6.831  0.0000E+00  0.0000E+00
     -6.804  0.0000E+00  0.0000E+00
     -6.776  0.0000E+00  0.0000E+00
     -6.749  0.0000E+00  0.0000E+00
     -6.721  0.0000E+00  0.0000E+00
     -6.693  0.0000E+00  0.0000E+00
     -6.666  0.0000E+00  0.0000E+00
     -6.638  0.0000E+00  0.0000E+00
     -6.611  0.0000E+00  0.0000E+00
     -6.583  0.0000E+00  0.0000E+00
     -6.556  0.0000E+00  0.0000E+00
     -6.528  0.0000E+00  0.0000E+00
     -6.501  0.0000E+00  0.0000E+00
     -6.473  0.1687E-13  0.4649E-15
     -6.446  0.5757E-11  0.1591E-12
     -6.418  0.1090E-08  0.3018E-10
     -6.390  0.1144E-06  0.3182E-08
     -6.363  0.6684E-05  0.1874E-06
     -6.335  0.2183E-03  0.6201E-05
     -6.308  0.4003E-02  0.1165E-03
     -6.280  0.4151E-01  0.1260E-02
     -6.253  0.2457E+00  0.8031E-02
     -6.225  0.8433E+00  0.3127E-01
     -6.198  0.1726E+01  0.7883E-01
     -6.170  0.2229E+01  0.1402E+00
     -6.142  0.2021E+01  0.1959E+00
     -6.115  0.1553E+01  0.2387E+00
     -6.087  0.1240E+01  0.2729E+00
     -6.060  0.1045E+01  0.3017E+00
     -6.032  0.8918E+00  0.3263E+00
     -6.005  0.8642E+00  0.3501E+00
     -5.977  0.8600E+00  0.3738E+00
     -5.950  0.7081E+00  0.3933E+00
     -5.922  0.5975E+00  0.4098E+00
     -5.894  0.7048E+00  0.4292E+00
     -5.867  0.7772E+00  0.4506E+00
     -5.839  0.6052E+00  0.4673E+00
     -5.812  0.4318E+00  0.4792E+00
     -5.784  0.5133E+00  0.4933E+00
     -5.757  0.6779E+00  0.5120E+00
     -5.729  0.6541E+00  0.5300E+00
     -5.702  0.4787E+00  0.5432E+00
     -5.674  0.3685E+00  0.5533E+00
     -5.646  0.4487E+00  0.5657E+00
     -5.619  0.5698E+00  0.5814E+00
     -5.591  0.5394E+00  0.5963E+00
     -5.564  0.4481E+00  0.6086E+00
     -5.536  0.4150E+00  0.6201E+00
     -5.509  0.4227E+00  0.6317E+00
     -5.481  0.4511E+00  0.6441E+00
     -5.454  0.4559E+00  0.6567E+00
     -5.426  0.3975E+00  0.6676E+00
     -5.399  0.3394E+00  0.6770E+00
     -5.371  0.4026E+00  0.6881E+00
     -5.343  0.5156E+00  0.7023E+00
     -5.316  0.4806E+00  0.7155E+00
     -5.288  0.3404E+00  0.7249E+00
     -5.261  0.2896E+00  0.7329E+00
     -5.233  0.3149E+00  0.7416E+00
     -5.206  0.3264E+00  0.7506E+00
     -5.178  0.4099E+00  0.7619E+00
     -5.151  0.5395E+00  0.7767E+00
     -5.123  0.4895E+00  0.7902E+00
     -5.095  0.2799E+00  0.7979E+00
     -5.068  0.1658E+00  0.8025E+00
     -5.040  0.2429E+00  0.8092E+00
     -5.013  0.3892E+00  0.8199E+00
     -4.985  0.4591E+00  0.8326E+00
     -4.958  0.4295E+00  0.8444E+00
     -4.930  0.3782E+00  0.8548E+00
     -4.903  0.3401E+00  0.8642E+00
     -4.875  0.2541E+00  0.8712E+00
     -4.847  0.1704E+00  0.8759E+00
     -4.820  0.2464E+00  0.8827E+00
     -4.792  0.4617E+00  0.8954E+00
     -4.765  0.5444E+00  0.9104E+00
     -4.737  0.3712E+00  0.9206E+00
     -4.710  0.1829E+00  0.9257E+00
     -4.682  0.1785E+00  0.9306E+00
     -4.655  0.2877E+00  0.9385E+00
     -4.627  0.3597E+00  0.9484E+00
     -4.599  0.3753E+00  0.9587E+00
     -4.572  0.3661E+00  0.9688E+00
     -4.544  0.3446E+00  0.9783E+00
     -4.517  0.3323E+00  0.9875E+00
     -4.489  0.2719E+00  0.9950E+00
     -4.462  0.1768E+00  0.9998E+00
     -4.434  0.2042E+00  0.1005E+01
     -4.407  0.3992E+00  0.1016E+01
     -4.379  0.5414E+00  0.1031E+01
     -4.352  0.4267E+00  0.1043E+01
     -4.324  0.1976E+00  0.1049E+01
     -4.296  0.8945E-01  0.1051E+01
     -4.269  0.1723E+00  0.1056E+01
     -4.241  0.3917E+00  0.1067E+01
     -4.214  0.5358E+00  0.1081E+01
     -4.186  0.4308E+00  0.1093E+01
     -4.159  0.2379E+00  0.1100E+01
     -4.131  0.2099E+00  0.1106E+01
     -4.104  0.3549E+00  0.1115E+01
     -4.076  0.4800E+00  0.1129E+01
     -4.048  0.4330E+00  0.1141E+01
     -4.021  0.2840E+00  0.1148E+01
     -3.993  0.2510E+00  0.1155E+01
     -3.966  0.4415E+00  0.1167E+01
     -3.938  0.6937E+00  0.1187E+01
     -3.911  0.7187E+00  0.1206E+01
     -3.883  0.4766E+00  0.1219E+01
     -3.856  0.2540E+00  0.1226E+01
     -3.828  0.2346E+00  0.1233E+01
     -3.800  0.2795E+00  0.1241E+01
     -3.773  0.2170E+00  0.1247E+01
     -3.745  0.9605E-01  0.1249E+01
     -3.718  0.2445E-01  0.1250E+01
     -3.690  0.9948E-02  0.1250E+01
     -3.663  0.3997E-01  0.1251E+01
     -3.635  0.1333E+00  0.1255E+01
     -3.608  0.2552E+00  0.1262E+01
     -3.580  0.3001E+00  0.1270E+01
     -3.552  0.2842E+00  0.1278E+01
     -3.525  0.2978E+00  0.1286E+01
     -3.497  0.2732E+00  0.1294E+01
     -3.470  0.1594E+00  0.1298E+01
     -3.442  0.5341E-01  0.1300E+01
     -3.415  0.1007E-01  0.1300E+01
     -3.387  0.1258E-02  0.1300E+01
     -3.360  0.2921E-02  0.1300E+01
     -3.332  0.2347E-01  0.1301E+01
     -3.305  0.1111E+00  0.1304E+01
     -3.277  0.3067E+00  0.1312E+01
     -3.249  0.4994E+00  0.1326E+01
     -3.222  0.4820E+00  0.1339E+01
     -3.194  0.2757E+00  0.1347E+01
     -3.167  0.9286E-01  0.1349E+01
     -3.139  0.1822E-01  0.1350E+01
     -3.112  0.2118E-02  0.1350E+01
     -3.084  0.1169E-02  0.1350E+01
     -3.057  0.9901E-02  0.1350E+01
     -3.029  0.5286E-01  0.1352E+01
     -3.001  0.1594E+00  0.1356E+01
     -2.974  0.2804E+00  0.1364E+01
     -2.946  0.3245E+00  0.1373E+01
     -2.919  0.3248E+00  0.1382E+01
     -2.891  0.3129E+00  0.1390E+01
     -2.864  0.2241E+00  0.1397E+01
     -2.836  0.1008E+00  0.1399E+01
     -2.809  0.4938E-01  0.1401E+01
     -2.781  0.1031E+00  0.1404E+01
     -2.753  0.2209E+00  0.1410E+01
     -2.726  0.2739E+00  0.1417E+01
     -2.698  0.1909E+00  0.1422E+01
     -2.671  0.7512E-01  0.1425E+01
     -2.643  0.2271E-01  0.1425E+01
     -2.616  0.5086E-01  0.1427E+01
     -2.588  0.2155E+00  0.1432E+01
     -2.561  0.5560E+00  0.1448E+01
     -2.533  0.8758E+00  0.1472E+01
     -2.505  0.9120E+00  0.1497E+01
     -2.478  0.7345E+00  0.1517E+01
     -2.450  0.5856E+00  0.1533E+01
     -2.423  0.5469E+00  0.1548E+01
     -2.395  0.5682E+00  0.1564E+01
     -2.368  0.6095E+00  0.1581E+01
     -2.340  0.6625E+00  0.1599E+01
     -2.313  0.7300E+00  0.1619E+01
     -2.285  0.8193E+00  0.1642E+01
     -2.257  0.9462E+00  0.1668E+01
     -2.230  0.1156E+01  0.1700E+01
     -2.202  0.1591E+01  0.1744E+01
     -2.175  0.2499E+01  0.1812E+01
     -2.147  0.3739E+01  0.1916E+01
     -2.120  0.4285E+01  0.2034E+01
     -2.092  0.3466E+01  0.2129E+01
     -2.065  0.2165E+01  0.2189E+01
     -2.037  0.1347E+01  0.2226E+01
     -2.010  0.1011E+01  0.2254E+01
     -1.982  0.8673E+00  0.2278E+01
     -1.954  0.7818E+00  0.2299E+01
     -1.927  0.7195E+00  0.2319E+01
     -1.899  0.6707E+00  0.2337E+01
     -1.872  0.6310E+00  0.2355E+01
     -1.844  0.5980E+00  0.2371E+01
     -1.817  0.5738E+00  0.2387E+01
     -1.789  0.5748E+00  0.2403E+01
     -1.762  0.6349E+00  0.2420E+01
     -1.734  0.7362E+00  0.2441E+01
     -1.706  0.7574E+00  0.2462E+01
     -1.679  0.6483E+00  0.2479E+01
     -1.651  0.5239E+00  0.2494E+01
     -1.624  0.4730E+00  0.2507E+01
     -1.596  0.5062E+00  0.2521E+01
     -1.569  0.6003E+00  0.2537E+01
     -1.541  0.6342E+00  0.2555E+01
     -1.514  0.4647E+00  0.2568E+01
     -1.486  0.2055E+00  0.2573E+01
     -1.458  0.5334E-01  0.2575E+01
     -1.431  0.1918E-01  0.2575E+01
     -1.403  0.6216E-01  0.2577E+01
     -1.376  0.1887E+00  0.2582E+01
     -1.348  0.3592E+00  0.2592E+01
     -1.321  0.4729E+00  0.2605E+01
     -1.293  0.4979E+00  0.2619E+01
     -1.266  0.4832E+00  0.2632E+01
     -1.238  0.4658E+00  0.2645E+01
     -1.210  0.4418E+00  0.2657E+01
     -1.183  0.3966E+00  0.2668E+01
     -1.155  0.3500E+00  0.2678E+01
     -1.128  0.3391E+00  0.2687E+01
     -1.100  0.3183E+00  0.2696E+01
     -1.073  0.2906E+00  0.2704E+01
     -1.045  0.3020E+00  0.2712E+01
     -1.018  0.2644E+00  0.2720E+01
     -0.990  0.1458E+00  0.2724E+01
     -0.963  0.5654E-01  0.2725E+01
     -0.935  0.7773E-01  0.2727E+01
     -0.907  0.2473E+00  0.2734E+01
     -0.880  0.4994E+00  0.2748E+01
     -0.852  0.6124E+00  0.2765E+01
     -0.825  0.5286E+00  0.2779E+01
     -0.797  0.3907E+00  0.2790E+01
     -0.770  0.2382E+00  0.2797E+01
     -0.742  0.9732E-01  0.2799E+01
     -0.715  0.2376E-01  0.2800E+01
     -0.687  0.6109E-02  0.2800E+01
     -0.659  0.2174E-01  0.2801E+01
     -0.632  0.8994E-01  0.2803E+01
     -0.604  0.2132E+00  0.2809E+01
     -0.577  0.3003E+00  0.2817E+01
     -0.549  0.3027E+00  0.2826E+01
     -0.522  0.3105E+00  0.2834E+01
     -0.494  0.3316E+00  0.2843E+01
     -0.467  0.3234E+00  0.2852E+01
     -0.439  0.3218E+00  0.2861E+01
     -0.411  0.2800E+00  0.2869E+01
     -0.384  0.1616E+00  0.2873E+01
     -0.356  0.6733E-01  0.2875E+01
     -0.329  0.7750E-01  0.2877E+01
     -0.301  0.1820E+00  0.2882E+01
     -0.274  0.2730E+00  0.2890E+01
     -0.246  0.2403E+00  0.2896E+01
     -0.219  0.1653E+00  0.2901E+01
     -0.191  0.1929E+00  0.2906E+01
     -0.163  0.2705E+00  0.2914E+01
     -0.136  0.2428E+00  0.2920E+01
     -0.108  0.1242E+00  0.2924E+01
     -0.081  0.3890E-01  0.2925E+01
     -0.053  0.3056E-01  0.2926E+01
     -0.026  0.1060E+00  0.2929E+01
      0.002  0.2672E+00  0.2936E+01
      0.029  0.4274E+00  0.2948E+01
      0.057  0.4560E+00  0.2960E+01
      0.084  0.3280E+00  0.2969E+01
      0.112  0.1541E+00  0.2974E+01
      0.140  0.6043E-01  0.2975E+01
      0.167  0.8580E-01  0.2978E+01
      0.195  0.1970E+00  0.2983E+01
      0.222  0.2746E+00  0.2991E+01
      0.250  0.2156E+00  0.2997E+01
      0.277  0.9498E-01  0.2999E+01
      0.305  0.2402E-01  0.3000E+01
      0.332  0.9602E-02  0.3000E+01
      0.360  0.3943E-01  0.3001E+01
      0.388  0.1387E+00  0.3005E+01
      0.415  0.2958E+00  0.3013E+01
      0.443  0.4141E+00  0.3025E+01
      0.470  0.4177E+00  0.3036E+01
      0.498  0.3050E+00  0.3045E+01
      0.525  0.1506E+00  0.3049E+01
      0.553  0.6941E-01  0.3051E+01
      0.580  0.1104E+00  0.3054E+01
      0.608  0.2249E+00  0.3060E+01
      0.636  0.2732E+00  0.3067E+01
      0.663  0.1869E+00  0.3073E+01
      0.691  0.7210E-01  0.3075E+01
      0.718  0.2016E-01  0.3075E+01
      0.746  0.3298E-01  0.3076E+01
      0.773  0.1142E+00  0.3079E+01
      0.801  0.2344E+00  0.3086E+01
      0.828  0.2719E+00  0.3093E+01
      0.856  0.1899E+00  0.3098E+01
      0.884  0.1343E+00  0.3102E+01
      0.911  0.1987E+00  0.3107E+01
      0.939  0.2753E+00  0.3115E+01
      0.966  0.2343E+00  0.3122E+01
      0.994  0.1538E+00  0.3126E+01
      1.021  0.1788E+00  0.3131E+01
      1.049  0.2644E+00  0.3138E+01
      1.076  0.2513E+00  0.3145E+01
      1.104  0.1361E+00  0.3149E+01
      1.132  0.4544E-01  0.3150E+01
      1.159  0.3577E-01  0.3151E+01
      1.187  0.1097E+00  0.3154E+01
      1.214  0.2366E+00  0.3160E+01
      1.242  0.3220E+00  0.3169E+01
      1.269  0.3769E+00  0.3180E+01
      1.297  0.5267E+00  0.3194E+01
      1.324  0.7065E+00  0.3214E+01
      1.352  0.7938E+00  0.3236E+01
      1.379  0.8832E+00  0.3260E+01
      1.407  0.1023E+01  0.3288E+01
      1.435  0.1083E+01  0.3318E+01
      1.462  0.1070E+01  0.3347E+01
      1.490  0.1046E+01  0.3376E+01
      1.517  0.9049E+00  0.3401E+01
      1.545  0.6512E+00  0.3419E+01
      1.572  0.4769E+00  0.3432E+01
      1.600  0.4831E+00  0.3446E+01
      1.627  0.6460E+00  0.3463E+01
      1.655  0.8461E+00  0.3487E+01
      1.683  0.8193E+00  0.3509E+01
      1.710  0.5752E+00  0.3525E+01
      1.738  0.3996E+00  0.3536E+01
      1.765  0.3267E+00  0.3545E+01
      1.793  0.3152E+00  0.3554E+01
      1.820  0.4649E+00  0.3567E+01
      1.848  0.7125E+00  0.3586E+01
      1.875  0.8108E+00  0.3609E+01
      1.903  0.7110E+00  0.3628E+01
      1.931  0.6006E+00  0.3645E+01
      1.958  0.5481E+00  0.3660E+01
      1.986  0.4971E+00  0.3674E+01
      2.013  0.4315E+00  0.3685E+01
      2.041  0.3484E+00  0.3695E+01
      2.068  0.3362E+00  0.3704E+01
      2.096  0.5485E+00  0.3719E+01
      2.123  0.8102E+00  0.3742E+01
      2.151  0.7501E+00  0.3762E+01
      2.179  0.4765E+00  0.3775E+01
      2.206  0.3366E+00  0.3785E+01
      2.234  0.3018E+00  0.3793E+01
      2.261  0.2582E+00  0.3800E+01
      2.289  0.3217E+00  0.3809E+01
      2.316  0.5039E+00  0.3823E+01
      2.344  0.5785E+00  0.3839E+01
      2.371  0.5462E+00  0.3854E+01
      2.399  0.6525E+00  0.3872E+01
      2.426  0.8015E+00  0.3894E+01
      2.454  0.7174E+00  0.3914E+01
      2.482  0.5067E+00  0.3928E+01
      2.509  0.3849E+00  0.3938E+01
      2.537  0.3317E+00  0.3947E+01
      2.564  0.3629E+00  0.3957E+01
      2.592  0.5138E+00  0.3972E+01
      2.619  0.6016E+00  0.3988E+01
      2.647  0.5429E+00  0.4003E+01
      2.674  0.5070E+00  0.4017E+01
      2.702  0.5930E+00  0.4033E+01
      2.730  0.7758E+00  0.4055E+01
      2.757  0.1113E+01  0.4086E+01
      2.785  0.1947E+01  0.4139E+01
      2.812  0.3299E+01  0.4230E+01
      2.840  0.4195E+01  0.4346E+01
      2.867  0.3912E+01  0.4453E+01
      2.895  0.3100E+01  0.4539E+01
      2.922  0.2509E+01  0.4608E+01
      2.950  0.2102E+01  0.4666E+01
      2.978  0.1802E+01  0.4716E+01
      3.005  0.1623E+01  0.4760E+01
      3.033  0.1511E+01  0.4802E+01
      3.060  0.1580E+01  0.4845E+01
      3.088  0.1745E+01  0.4894E+01
      3.115  0.1643E+01  0.4939E+01
      3.143  0.1292E+01  0.4974E+01
      3.170  0.1121E+01  0.5005E+01
      3.198  0.1284E+01  0.5041E+01
      3.226  0.1456E+01  0.5081E+01
      3.253  0.1298E+01  0.5117E+01
      3.281  0.8822E+00  0.5141E+01
      3.308  0.6152E+00  0.5158E+01
      3.336  0.6992E+00  0.5177E+01
      3.363  0.8776E+00  0.5201E+01
      3.391  0.9270E+00  0.5227E+01
      3.418  0.8563E+00  0.5250E+01
      3.446  0.7078E+00  0.5270E+01
      3.473  0.6569E+00  0.5288E+01
      3.501  0.7661E+00  0.5309E+01
      3.529  0.7526E+00  0.5330E+01
      3.556  0.5136E+00  0.5344E+01
      3.584  0.3187E+00  0.5353E+01
      3.611  0.3657E+00  0.5363E+01
      3.639  0.6061E+00  0.5380E+01
      3.666  0.9122E+00  0.5405E+01
      3.694  0.1069E+01  0.5434E+01
      3.721  0.8987E+00  0.5459E+01
      3.749  0.5863E+00  0.5475E+01
      3.777  0.4146E+00  0.5486E+01
      3.804  0.3964E+00  0.5497E+01
      3.832  0.5391E+00  0.5512E+01
      3.859  0.8544E+00  0.5536E+01
      3.887  0.1017E+01  0.5564E+01
      3.914  0.7806E+00  0.5585E+01
      3.942  0.3852E+00  0.5596E+01
      3.969  0.1314E+00  0.5600E+01
      3.997  0.9244E-01  0.5602E+01
      4.025  0.2747E+00  0.5610E+01
      4.052  0.6297E+00  0.5627E+01
      4.080  0.8908E+00  0.5652E+01
      4.107  0.9178E+00  0.5677E+01
      4.135  0.9265E+00  0.5702E+01
      4.162  0.8831E+00  0.5727E+01
      4.190  0.6192E+00  0.5744E+01
      4.217  0.3896E+00  0.5755E+01
      4.245  0.4326E+00  0.5766E+01
      4.273  0.6192E+00  0.5783E+01
      4.300  0.7020E+00  0.5803E+01
      4.328  0.5788E+00  0.5819E+01
      4.355  0.4540E+00  0.5831E+01
      4.383  0.6200E+00  0.5848E+01
      4.410  0.1215E+01  0.5882E+01
      4.438  0.2061E+01  0.5939E+01
      4.465  0.2570E+01  0.6009E+01
      4.493  0.2550E+01  0.6080E+01
      4.520  0.2368E+01  0.6145E+01
      4.548  0.2121E+01  0.6203E+01
      4.576  0.1799E+01  0.6253E+01
      4.603  0.1580E+01  0.6297E+01
      4.631  0.1492E+01  0.6338E+01
      4.658  0.1358E+01  0.6375E+01
      4.686  0.1109E+01  0.6406E+01
      4.713  0.9344E+00  0.6431E+01
      4.741  0.1066E+01  0.6461E+01
      4.768  0.1348E+01  0.6498E+01
      4.796  0.1527E+01  0.6540E+01
      4.824  0.1584E+01  0.6584E+01
      4.851  0.1393E+01  0.6622E+01
      4.879  0.1014E+01  0.6650E+01
      4.906  0.8282E+00  0.6673E+01
      4.934  0.9044E+00  0.6698E+01
      4.961  0.1138E+01  0.6729E+01
      4.989  0.1445E+01  0.6769E+01
      5.016  0.1477E+01  0.6809E+01
      5.044  0.1090E+01  0.6839E+01
      5.072  0.8202E+00  0.6862E+01
      5.099  0.1040E+01  0.6891E+01
      5.127  0.1297E+01  0.6926E+01
      5.154  0.1200E+01  0.6960E+01
      5.182  0.1125E+01  0.6991E+01
      5.209  0.1404E+01  0.7029E+01
      5.237  0.1640E+01  0.7074E+01
      5.264  0.1494E+01  0.7116E+01
      5.292  0.1261E+01  0.7150E+01
      5.320  0.1122E+01  0.7181E+01
      5.347  0.1020E+01  0.7209E+01
      5.375  0.1138E+01  0.7241E+01
      5.402  0.1501E+01  0.7282E+01
      5.430  0.1763E+01  0.7331E+01
      5.457  0.1804E+01  0.7380E+01
      5.485  0.1881E+01  0.7432E+01
      5.512  0.2140E+01  0.7491E+01
      5.540  0.2636E+01  0.7564E+01
      5.568  0.3425E+01  0.7658E+01
      5.595  0.4199E+01  0.7774E+01
      5.623  0.4101E+01  0.7887E+01
      5.650  0.2715E+01  0.7962E+01
      5.678  0.1100E+01  0.7992E+01
      5.705  0.2597E+00  0.7999E+01
      5.733  0.3498E-01  0.8000E+01
      5.760  0.2657E-02  0.8000E+01
      5.788  0.1130E-03  0.8000E+01
      5.815  0.2680E-05  0.8000E+01
      5.843  0.3528E-07  0.8000E+01
      5.871  0.2569E-09  0.8000E+01
      5.898  0.1033E-11  0.8000E+01
      5.926  0.1813E-14  0.8000E+01
      5.953  0.1199E-13  0.8000E+01
      5.981  0.3831E-11  0.8000E+01
      6.008  0.6799E-09  0.8000E+01
      6.036  0.6725E-07  0.8000E+01
      6.063  0.3724E-05  0.8000E+01
      6.091  0.1161E-03  0.8000E+01
      6.119  0.2049E-02  0.8000E+01
      6.146  0.2062E-01  0.8001E+01
      6.174  0.1194E+00  0.8004E+01
      6.201  0.4049E+00  0.8015E+01
      6.229  0.8309E+00  0.8038E+01
      6.256  0.1106E+01  0.8068E+01
      6.284  0.1101E+01  0.8099E+01
      6.311  0.1143E+01  0.8130E+01
      6.339  0.1746E+01  0.8178E+01
      6.367  0.2789E+01  0.8255E+01
      6.394  0.3316E+01  0.8347E+01
      6.422  0.2990E+01  0.8429E+01
      6.449  0.2429E+01  0.8496E+01
      6.477  0.2023E+01  0.8552E+01
      6.504  0.1735E+01  0.8599E+01
      6.532  0.1507E+01  0.8641E+01
      6.559  0.1389E+01  0.8679E+01
      6.587  0.1381E+01  0.8717E+01
      6.615  0.1360E+01  0.8755E+01
      6.642  0.1238E+01  0.8789E+01
      6.670  0.1130E+01  0.8820E+01
      6.697  0.1139E+01  0.8851E+01
      6.725  0.1120E+01  0.8882E+01
      6.752  0.9978E+00  0.8910E+01
      6.780  0.9485E+00  0.8936E+01
      6.807  0.1091E+01  0.8966E+01
      6.835  0.1307E+01  0.9002E+01
      6.862  0.1296E+01  0.9038E+01
      6.890  0.8831E+00  0.9062E+01
      6.918  0.3835E+00  0.9073E+01
      6.945  0.1899E+00  0.9078E+01
      6.973  0.4017E+00  0.9089E+01
      7.000  0.8806E+00  0.9113E+01
      7.028  0.1208E+01  0.9146E+01
      7.055  0.1187E+01  0.9179E+01
      7.083  0.1120E+01  0.9210E+01
      7.110  0.1102E+01  0.9240E+01
      7.138  0.1065E+01  0.9270E+01
      7.166  0.1163E+01  0.9302E+01
      7.193  0.1357E+01  0.9339E+01
      7.221  0.1339E+01  0.9376E+01
      7.248  0.1083E+01  0.9406E+01
      7.276  0.8053E+00  0.9428E+01
      7.303  0.6030E+00  0.9445E+01
      7.331  0.5928E+00  0.9461E+01
      7.358  0.8522E+00  0.9484E+01
      7.386  0.1097E+01  0.9515E+01
      7.414  0.1008E+01  0.9542E+01
      7.441  0.6876E+00  0.9561E+01
      7.469  0.4228E+00  0.9573E+01
      7.496  0.4062E+00  0.9584E+01
      7.524  0.6587E+00  0.9602E+01
      7.551  0.9911E+00  0.9630E+01
      7.579  0.1184E+01  0.9662E+01
      7.606  0.1085E+01  0.9692E+01
      7.634  0.7282E+00  0.9712E+01
      7.662  0.3756E+00  0.9723E+01
      7.689  0.2516E+00  0.9730E+01
      7.717  0.3790E+00  0.9740E+01
      7.744  0.6417E+00  0.9758E+01
      7.772  0.9081E+00  0.9783E+01
      7.799  0.1037E+01  0.9811E+01
      7.827  0.9647E+00  0.9838E+01
      7.854  0.7610E+00  0.9859E+01
      7.882  0.5635E+00  0.9874E+01
      7.909  0.5483E+00  0.9889E+01
      7.937  0.6694E+00  0.9908E+01
      7.965  0.7364E+00  0.9928E+01
      7.992  0.7940E+00  0.9950E+01
      8.020  0.8881E+00  0.9975E+01
      8.047  0.8724E+00  0.9999E+01
      8.075  0.7401E+00  0.1002E+02
      8.102  0.8593E+00  0.1004E+02
      8.130  0.1791E+01  0.1009E+02
      8.157  0.3632E+01  0.1019E+02
      8.185  0.5240E+01  0.1034E+02
      8.213  0.5296E+01  0.1048E+02
      8.240  0.4165E+01  0.1060E+02
      8.268  0.2883E+01  0.1068E+02
      8.295  0.1906E+01  0.1073E+02
      8.323  0.1483E+01  0.1077E+02
      8.350  0.1594E+01  0.1081E+02
      8.378  0.1843E+01  0.1086E+02
      8.405  0.1895E+01  0.1092E+02
      8.433  0.1779E+01  0.1097E+02
      8.461  0.1805E+01  0.1102E+02
      8.488  0.1999E+01  0.1107E+02
      8.516  0.2032E+01  0.1113E+02
      8.543  0.1898E+01  0.1118E+02
      8.571  0.1810E+01  0.1123E+02
      8.598  0.1757E+01  0.1128E+02
      8.626  0.1626E+01  0.1132E+02
      8.653  0.1509E+01  0.1136E+02
      8.681  0.1601E+01  0.1141E+02
      8.709  0.1804E+01  0.1146E+02
      8.736  0.1919E+01  0.1151E+02
      8.764  0.1806E+01  0.1156E+02
      8.791  0.1497E+01  0.1160E+02
      8.819  0.1347E+01  0.1164E+02
      8.846  0.1431E+01  0.1168E+02
      8.874  0.1476E+01  0.1172E+02
      8.901  0.1428E+01  0.1176E+02
      8.929  0.1631E+01  0.1180E+02
      8.957  0.2419E+01  0.1187E+02
      8.984  0.3406E+01  0.1196E+02
      9.012  0.3901E+01  0.1207E+02
      9.039  0.3840E+01  0.1218E+02
      9.067  0.3612E+01  0.1228E+02
      9.094  0.3449E+01  0.1237E+02
      9.122  0.3240E+01  0.1246E+02
      9.149  0.2665E+01  0.1253E+02
      9.177  0.1716E+01  0.1258E+02
      9.204  0.9055E+00  0.1261E+02
      9.232  0.5131E+00  0.1262E+02
      9.260  0.4516E+00  0.1263E+02
      9.287  0.6426E+00  0.1265E+02
      9.315  0.9517E+00  0.1268E+02
      9.342  0.1205E+01  0.1271E+02
      9.370  0.1300E+01  0.1275E+02
      9.397  0.1114E+01  0.1278E+02
      9.425  0.7149E+00  0.1280E+02
      9.452  0.4354E+00  0.1281E+02
      9.480  0.3587E+00  0.1282E+02
      9.508  0.3623E+00  0.1283E+02
      9.535  0.4527E+00  0.1284E+02
      9.563  0.5582E+00  0.1286E+02
      9.590  0.5654E+00  0.1287E+02
      9.618  0.6184E+00  0.1289E+02
      9.645  0.8028E+00  0.1291E+02
      9.673  0.8861E+00  0.1293E+02
      9.700  0.8283E+00  0.1296E+02
      9.728  0.8547E+00  0.1298E+02
      9.756  0.9843E+00  0.1301E+02
      9.783  0.1122E+01  0.1304E+02
      9.811  0.1211E+01  0.1307E+02
      9.838  0.1230E+01  0.1311E+02
      9.866  0.1130E+01  0.1314E+02
      9.893  0.8143E+00  0.1316E+02
      9.921  0.3983E+00  0.1317E+02
      9.948  0.1209E+00  0.1317E+02
      9.976  0.2171E-01  0.1317E+02
     10.004  0.2352E-02  0.1317E+02
     10.031  0.2092E-02  0.1318E+02
     10.059  0.2015E-01  0.1318E+02
     10.086  0.1181E+00  0.1318E+02
     10.114  0.4024E+00  0.1319E+02
     10.141  0.8271E+00  0.1321E+02
     10.169  0.1100E+01  0.1324E+02
     10.196  0.1046E+01  0.1327E+02
     10.224  0.7889E+00  0.1329E+02
     10.251  0.5364E+00  0.1331E+02
     10.279  0.3491E+00  0.1332E+02
     10.307  0.1808E+00  0.1332E+02
     10.334  0.6029E-01  0.1332E+02
     10.362  0.1357E-01  0.1333E+02
     10.389  0.1954E-01  0.1333E+02
     10.417  0.9954E-01  0.1333E+02
     10.444  0.3117E+00  0.1334E+02
     10.472  0.5797E+00  0.1335E+02
     10.499  0.6807E+00  0.1337E+02
     10.527  0.5545E+00  0.1339E+02
     10.555  0.3636E+00  0.1340E+02
     10.582  0.3369E+00  0.1341E+02
     10.610  0.5852E+00  0.1342E+02
     10.637  0.8261E+00  0.1345E+02
     10.665  0.7072E+00  0.1346E+02
     10.692  0.4245E+00  0.1348E+02
     10.720  0.3155E+00  0.1348E+02
     10.747  0.3143E+00  0.1349E+02
     10.775  0.3130E+00  0.1350E+02
     10.803  0.3998E+00  0.1351E+02
     10.830  0.5181E+00  0.1353E+02
     10.858  0.4630E+00  0.1354E+02
     10.885  0.2614E+00  0.1355E+02
     10.913  0.1292E+00  0.1355E+02
     10.940  0.1621E+00  0.1356E+02
     10.968  0.2615E+00  0.1356E+02
     10.995  0.2765E+00  0.1357E+02
     11.023  0.2551E+00  0.1358E+02
     11.051  0.3804E+00  0.1359E+02
     11.078  0.5926E+00  0.1360E+02
     11.106  0.6701E+00  0.1362E+02
     11.133  0.6806E+00  0.1364E+02
     11.161  0.8644E+00  0.1367E+02
     11.188  0.1202E+01  0.1370E+02
     11.216  0.1368E+01  0.1374E+02
     11.243  0.1171E+01  0.1377E+02
     11.271  0.8253E+00  0.1379E+02
     11.298  0.5939E+00  0.1381E+02
     11.326  0.5039E+00  0.1382E+02
     11.354  0.4492E+00  0.1383E+02
     11.381  0.3403E+00  0.1384E+02
     11.409  0.1824E+00  0.1385E+02
     11.436  0.7647E-01  0.1385E+02
     11.464  0.1189E+00  0.1385E+02
     11.491  0.3941E+00  0.1386E+02
     11.519  0.8387E+00  0.1389E+02
     11.546  0.1056E+01  0.1392E+02
     11.574  0.8123E+00  0.1394E+02
     11.602  0.4740E+00  0.1395E+02
     11.629  0.4063E+00  0.1396E+02
     11.657  0.5312E+00  0.1398E+02
     11.684  0.7011E+00  0.1400E+02
     11.712  0.9339E+00  0.1402E+02
     11.739  0.1147E+01  0.1405E+02
     11.767  0.1153E+01  0.1409E+02
     11.794  0.9901E+00  0.1411E+02
     11.822  0.7948E+00  0.1414E+02
     11.850  0.6100E+00  0.1415E+02
     11.877  0.4555E+00  0.1416E+02
     11.905  0.3563E+00  0.1417E+02
     11.932  0.4216E+00  0.1419E+02
     11.960  0.7208E+00  0.1421E+02
     11.987  0.1086E+01  0.1424E+02
     12.015  0.1287E+01  0.1427E+02
     12.042  0.1322E+01  0.1431E+02
     12.070  0.1238E+01  0.1434E+02
     12.098  0.1009E+01  0.1437E+02
     12.125  0.7972E+00  0.1439E+02
     12.153  0.6414E+00  0.1441E+02
     12.180  0.4189E+00  0.1442E+02
     12.208  0.2804E+00  0.1443E+02
     12.235  0.4126E+00  0.1444E+02
     12.263  0.7121E+00  0.1446E+02
     12.290  0.9059E+00  0.1448E+02
     12.318  0.8433E+00  0.1451E+02
     12.345  0.6392E+00  0.1453E+02
     12.373  0.4592E+00  0.1454E+02
     12.401  0.3342E+00  0.1455E+02
     12.428  0.3435E+00  0.1456E+02
     12.456  0.5764E+00  0.1457E+02
     12.483  0.8719E+00  0.1460E+02
     12.511  0.1024E+01  0.1462E+02
     12.538  0.1041E+01  0.1465E+02
     12.566  0.1048E+01  0.1468E+02
     12.593  0.1177E+01  0.1471E+02
     12.621  0.1461E+01  0.1476E+02
     12.649  0.1783E+01  0.1480E+02
     12.676  0.1953E+01  0.1486E+02
     12.704  0.1938E+01  0.1491E+02
     12.731  0.1856E+01  0.1496E+02
     12.759  0.1607E+01  0.1501E+02
     12.786  0.1220E+01  0.1504E+02
     12.814  0.9821E+00  0.1507E+02
     12.841  0.9094E+00  0.1509E+02
     12.869  0.9071E+00  0.1512E+02
     12.897  0.1067E+01  0.1515E+02
     12.924  0.1580E+01  0.1519E+02
     12.952  0.2291E+01  0.1525E+02
     12.979  0.2493E+01  0.1532E+02
     13.007  0.2003E+01  0.1538E+02
     13.034  0.1523E+01  0.1542E+02
     13.062  0.1487E+01  0.1546E+02
     13.089  0.1536E+01  0.1550E+02
     13.117  0.1294E+01  0.1554E+02
     13.145  0.1064E+01  0.1557E+02
     13.172  0.1300E+01  0.1560E+02
     13.200  0.1937E+01  0.1566E+02
     13.227  0.2501E+01  0.1573E+02
     13.255  0.2784E+01  0.1580E+02
     13.282  0.3352E+01  0.1589E+02
     13.310  0.4414E+01  0.1602E+02
     13.337  0.4854E+01  0.1615E+02
     13.365  0.3976E+01  0.1626E+02
     13.393  0.2809E+01  0.1634E+02
     13.420  0.2413E+01  0.1640E+02
     13.448  0.2565E+01  0.1647E+02
     13.475  0.2628E+01  0.1655E+02
     13.503  0.2545E+01  0.1662E+02
     13.530  0.2388E+01  0.1668E+02
     13.558  0.1900E+01  0.1673E+02
     13.585  0.1151E+01  0.1677E+02
     13.613  0.8123E+00  0.1679E+02
     13.640  0.1243E+01  0.1682E+02
     13.668  0.2078E+01  0.1688E+02
     13.696  0.2588E+01  0.1695E+02
     13.723  0.2275E+01  0.1701E+02
     13.751  0.1515E+01  0.1706E+02
     13.778  0.1075E+01  0.1709E+02
     13.806  0.1123E+01  0.1712E+02
     13.833  0.1220E+01  0.1715E+02
     13.861  0.1140E+01  0.1718E+02
     13.888  0.1161E+01  0.1721E+02
     13.916  0.1417E+01  0.1725E+02
     13.944  0.1652E+01  0.1730E+02
     13.971  0.1637E+01  0.1734E+02
     13.999  0.1428E+01  0.1738E+02
     14.026  0.1404E+01  0.1742E+02