    2    2    1    1
  0.2045331E+02  0.3867552E-09  0.3867552E-09  0.3867552E-09  0.5000000E-15
  1.000000000000000E-004
  CAR 
                                         
      8     80     32
 
  0.5000000E+00  0.5000000E+00  0.5000000E+00  0.1250000E-01
    1       -3.922502   1.000000
    2       -1.254935   1.000000
    3        4.433564   1.000000
    4        4.433564   1.000000
    5        7.077035   0.000000
    6        8.961699   0.000000
    7        8.961699   0.000000
    8       13.313819   0.000000
    9       16.108852   0.000000
   10       16.108852   0.000000
   11       16.789921   0.000000
   12       16.829736   0.000000
   13       16.829736   0.000000
   14       18.345836   0.000000
   15       24.751190   0.000000
   16       25.356840   0.000000
   17       27.057751   0.000000
   18       27.057751   0.000000
   19       27.179513   0.000000
   20       27.179513   0.000000
   21       31.046684   0.000000
   22       31.762386   0.000000
   23       31.762386   0.000000
   24       32.680300   0.000000
   25       32.680300   0.000000
   26       33.658541   0.000000
   27       36.262752   0.000000
   28       37.628593   0.000000
   29       37.628593   0.000000
   30       38.138003   0.000000
   31       38.138003   0.000000
   32       39.066610   0.000000
 
  0.4736842E+00  0.4736842E+00  0.4736842E+00  0.1250000E-01
    1       -3.960272   1.000000
    2       -1.200327   1.000000
    3        4.438482   1.000000
    4        4.438482   1.000000
    5        7.082766   0.000000
    6        8.967139   0.000000
    7        8.967139   0.000000
    8       13.322185   0.000000
    9       15.827475   0.000000
   10       15.827475   0.000000
   11       16.638129   0.000000
   12       17.131868   0.000000
   13       17.131868   0.000000
   14       18.490489   0.000000
   15       24.204364   0.000000
   16       25.932709   0.000000
   17       26.458146   0.000000
   18       26.458146   0.000000
   19       27.739314   0.000000
   20       27.739314   0.000000
   21       30.832000   0.000000
   22       31.790427   0.000000
   23       31.790427   0.000000
   24       32.699672   0.000000
   25       32.699672   0.000000
   26       33.838882   0.000000
   27       36.243363   0.000000
   28       37.632310   0.000000
   29       37.632310   0.000000
   30       38.174509   0.000000
   31       38.174509   0.000000
   32       39.082369   0.000000
 
  0.4473684E+00  0.4473684E+00  0.4473684E+00  0.1250000E-01
    1       -4.064961   1.000000
    2       -1.045101   1.000000
    3        4.453232   1.000000
    4        4.453232   1.000000
    5        7.099957   0.000000
    6        8.983066   0.000000
    7        8.983066   0.000000
    8       13.346327   0.000000
    9       15.368342   0.000000
   10       15.368342   0.000000
   11       16.289446   0.000000
   12       17.653263   0.000000
   13       17.653263   0.000000
   14       18.811554   0.000000
   15       23.481199   0.000000
   16       25.785108   0.000000
   17       25.785108   0.000000
   18       26.749373   0.000000
   19       28.287249   0.000000
   20       28.287249   0.000000
   21       30.317998   0.000000
   22       31.868744   0.000000
   23       31.868744   0.000000
   24       32.772262   0.000000
   25       32.772262   0.000000
   26       34.238960   0.000000
   27       36.187054   0.000000
   28       37.649467   0.000000
   29       37.649470   0.000000
   30       38.276811   0.000000
   31       38.276815   0.000000
   32       39.144793   0.000000
 
  0.4210526E+00  0.4210526E+00  0.4210526E+00  0.1250000E-01
    1       -4.217182   1.000000
    2       -0.808786   1.000000
    3        4.477776   1.000000
    4        4.477776   1.000000
    5        7.128482   0.000000
    6        9.007948   0.000000
    7        9.007948   0.000000
    8       13.383008   0.000000
    9       14.904655   0.000000
   10       14.904655   0.000000
   11       15.869207   0.000000
   12       18.218365   0.000000
   13       18.218365   0.000000
   14       19.159580   0.000000
   15       22.817280   0.000000
   16       25.111732   0.000000
   17       25.111732   0.000000
   18       27.593439   0.000000
   19       28.731684   0.000000
   20       28.731684   0.000000
   21       29.679760   0.000000
   22       31.968355   0.000000
   23       31.968355   0.000000
   24       32.944416   0.000000
   25       32.944416   0.000000
   26       34.658407   0.000000
   27       36.098446   0.000000
   28       37.690030   0.000000
   29       37.690030   0.000000
   30       38.430074   0.000000
   31       38.430074   0.000000
   32       39.298895   0.000000
 
  0.3947368E+00  0.3947368E+00  0.3947368E+00  0.1250000E-01
    1       -4.397256   1.000000
    2       -0.511295   1.000000
    3        4.512087   1.000000
    4        4.512087   1.000000
    5        7.168146   0.000000
    6        9.039525   0.000000
    7        9.039525   0.000000
    8       13.424513   0.000000
    9       14.462654   0.000000
   10       14.462654   0.000000
   11       15.434588   0.000000
   12       18.798509   0.000000
   13       18.798509   0.000000
   14       19.418020   0.000000
   15       22.294697   0.000000
   16       24.454373   0.000000
   17       24.454373   0.000000
   18       28.401687   0.000000
   19       29.045216   0.000000
   20       29.054818   0.000000
   21       29.054818   0.000000
   22       32.043288   0.000000
   23       32.043288   0.000000
   24       33.276713   0.000000
   25       33.276713   0.000000
   26       34.978173   0.000000
   27       35.985361   0.000000
   28       37.763751   0.000000
   29       37.763751   0.000000
   30       38.622630   0.000000
   31       38.622630   0.000000
   32       39.594698   0.000000
 
  0.3684211E+00  0.3684211E+00  0.3684211E+00  0.1250000E-01
    1       -4.590234   1.000000
    2       -0.167943   1.000000
    3        4.556081   1.000000
    4        4.556081   1.000000
    5        7.218891   0.000000
    6        9.074019   0.000000
    7        9.074019   0.000000
    8       13.453000   0.000000
    9       14.052349   0.000000
   10       14.052349   0.000000
   11       15.021322   0.000000
   12       19.374783   0.000000
   13       19.374783   0.000000
   14       19.448657   0.000000
   15       22.038380   0.000000
   16       23.831777   0.000000
   17       23.831777   0.000000
   18       28.213005   0.000000
   19       29.260612   0.000000
   20       29.260612   0.000000
   21       29.406160   0.000000
   22       32.070858   0.000000
   23       32.070858   0.000000
   24       33.781553   0.000000
   25       33.781553   0.000000
   26       35.146142   0.000000
   27       35.854779   0.000000
   28       37.872003   0.000000
   29       37.872003   0.000000
   30       38.840602   0.000000
   31       38.840603   0.000000
   32       40.062330   0.000000
 
  0.3421053E+00  0.3421053E+00  0.3421053E+00  0.1250000E-01
    1       -4.785956   1.000000
    2        0.210704   1.000000
    3        4.609575   1.000000
    4        4.609575   1.000000
    5        7.280242   0.000000
    6        9.106309   0.000000
    7        9.106309   0.000000
    8       13.426795   0.000000
    9       13.680991   0.000000
   10       13.680991   0.000000
   11       14.677131   0.000000
   12       19.178536   0.000000
   13       19.914797   0.000000
   14       19.914797   0.000000
   15       22.113814   0.000000
   16       23.277684   0.000000
   17       23.277684   0.000000
   18       27.537841   0.000000
   19       29.372405   0.000000
   20       29.372405   0.000000
   21       30.265959   0.000000
   22       32.059743   0.000000
   23       32.059743   0.000000
   24       34.422712   0.000000
   25       34.422712   0.000000
   26       35.165134   0.000000
   27       35.713413   0.000000
   28       38.014008   0.000000
   29       38.014008   0.000000
   30       39.071344   0.000000
   31       39.071344   0.000000
   32       40.689885   0.000000
 
  0.3157895E+00  0.3157895E+00  0.3157895E+00  0.1250000E-01
    1       -4.977804   1.000000
    2        0.617425   1.000000
    3        4.672336   1.000000
    4        4.672336   1.000000
    5        7.351749   0.000000
    6        9.130018   0.000000
    7        9.130018   0.000000
    8       13.275350   0.000000
    9       13.356208   0.000000
   10       13.356208   0.000000
   11       14.473548   0.000000
   12       18.705616   0.000000
   13       20.341681   0.000000
   14       20.341681   0.000000
   15       22.417800   0.000000
   16       22.870560   0.000000
   17       22.870560   0.000000
   18       26.869386   0.000000
   19       29.418738   0.000000
   20       29.418738   0.000000
   21       31.139787   0.000000
   22       32.024543   0.000000
   23       32.024543   0.000000
   24       35.070857   0.000000
   25       35.154505   0.000000
   26       35.154505   0.000000
   27       35.567424   0.000000
   28       38.188559   0.000000
   29       38.188559   0.000000
   30       39.298248   0.000000
   31       39.298248   0.000000
   32       41.438585   0.000000
 
  0.2894737E+00  0.2894737E+00  0.2894737E+00  0.1250000E-01
    1       -5.161461   1.000000
    2        1.047077   1.000000
    3        4.743984   1.000000
    4        4.743984   1.000000
    5        7.432710   0.000000
    6        9.137532   0.000000
    7        9.137532   0.000000
    8       12.972987   0.000000
    9       13.086034   0.000000
   10       13.086034   0.000000
   11       14.433480   0.000000
   12       18.153130   0.000000
   13       20.499940   0.000000
   14       20.499940   0.000000
   15       22.766611   0.000000
   16       22.766611   0.000000
   17       22.816737   0.000000
   18       26.240738   0.000000
   19       29.422462   0.000000
   20       29.422462   0.000000
   21       31.974453   0.000000
   22       31.974453   0.000000
   23       31.999588   0.000000
   24       34.907891   0.000000
   25       35.421714   0.000000
   26       35.936577   0.000000
   27       35.936577   0.000000
   28       38.393405   0.000000
   29       38.393405   0.000000
   30       39.493949   0.000000
   31       39.493949   0.000000
   32       42.263790   0.000000
 
  0.2631579E+00  0.2631579E+00  0.2631579E+00  0.1250000E-01
    1       -5.334036   1.000000
    2        1.495761   1.000000
    3        4.823978   1.000000
    4        4.823978   1.000000
    5        7.522225   0.000000
    6        9.121106   0.000000
    7        9.121106   0.000000
    8       12.576060   0.000000
    9       12.878512   0.000000
   10       12.878512   0.000000
   11       14.493922   0.000000
   12       17.591815   0.000000
   13       20.309165   0.000000
   14       20.309165   0.000000
   15       23.047592   0.000000
   16       23.047592   0.000000
   17       23.213582   0.000000
   18       25.693921   0.000000
   19       29.400717   0.000000
   20       29.400717   0.000000
   21       31.915192   0.000000
   22       31.915192   0.000000
   23       32.802421   0.000000
   24       34.744015   0.000000
   25       35.280181   0.000000
   26       36.727175   0.000000
   27       36.727175   0.000000
   28       38.627033   0.000000
   29       38.627033   0.000000
   30       39.623034   0.000000
   31       39.623034   0.000000
   32       43.118664   0.000000
 
  0.2368421E+00  0.2368421E+00  0.2368421E+00  0.1250000E-01
    1       -5.493526   1.000000
    2        1.960084   1.000000
    3        4.911498   1.000000
    4        4.911498   1.000000
    5        7.618950   0.000000
    6        9.074685   0.000000
    7        9.074685   0.000000
    8       12.135340   0.000000
    9       12.739520   0.000000
   10       12.739520   0.000000
   11       14.590126   0.000000
   12       17.064611   0.000000
   13       19.911543   0.000000
   14       19.911543   0.000000
   15       23.478082   0.000000
   16       23.571177   0.000000
   17       23.571177   0.000000
   18       25.332906   0.000000
   19       29.365149   0.000000
   20       29.365149   0.000000
   21       31.850117   0.000000
   22       31.850117   0.000000
   23       33.390809   0.000000
   24       34.746097   0.000000
   25       35.145878   0.000000
   26       37.457430   0.000000
   27       37.457430   0.000000
   28       38.875227   0.000000
   29       38.875227   0.000000
   30       39.668732   0.000000
   31       39.668732   0.000000
   32       43.193542   0.000000
 
  0.2105263E+00  0.2105263E+00  0.2105263E+00  0.1250000E-01
    1       -5.638546   1.000000
    2        2.436819   1.000000
    3        5.005359   1.000000
    4        5.005359   1.000000
    5        7.721084   0.000000
    6        8.996112   0.000000
    7        8.996112   0.000000
    8       11.674124   0.000000
    9       12.670767   0.000000
   10       12.670767   0.000000
   11       14.671248   0.000000
   12       16.614176   0.000000
   13       19.441340   0.000000
   14       19.441340   0.000000
   15       23.428916   0.000000
   16       24.203010   0.000000
   17       24.203010   0.000000
   18       25.328450   0.000000
   19       29.322640   0.000000
   20       29.322640   0.000000
   21       31.781851   0.000000
   22       31.781851   0.000000
   23       33.483966   0.000000
   24       35.021189   0.000000
   25       35.202449   0.000000
   26       37.968833   0.000000
   27       37.968833   0.000000
   28       39.034571   0.000000
   29       39.034572   0.000000
   30       39.813874   0.000000
   31       39.813876   0.000000
   32       43.006326   0.000000
 
  0.1842105E+00  0.1842105E+00  0.1842105E+00  0.1250000E-01
    1       -5.768118   1.000000
    2        2.922356   1.000000
    3        5.103914   1.000000
    4        5.103914   1.000000
    5        7.826134   0.000000
    6        8.888375   0.000000
    7        8.888375   0.000000
    8       11.202867   0.000000
    9       12.668244   0.000000
   10       12.668244   0.000000
   11       14.677381   0.000000
   12       16.299127   0.000000
   13       18.957505   0.000000
   14       18.957505   0.000000
   15       23.094424   0.000000
   16       24.883730   0.000000
   17       24.883730   0.000000
   18       25.646847   0.000000
   19       29.280384   0.000000
   20       29.280384   0.000000
   21       31.710237   0.000000
   22       31.710237   0.000000
   23       33.251133   0.000000
   24       34.907943   0.000000
   25       35.945314   0.000000
   26       37.965580   0.000000
   27       37.965580   0.000000
   28       39.123098   0.000000
   29       39.123098   0.000000
   30       40.332808   0.000000
   31       40.332810   0.000000
   32       43.073175   0.000000
 
  0.1578947E+00  0.1578947E+00  0.1578947E+00  0.1250000E-01
    1       -5.881513   1.000000
    2        3.412242   1.000000
    3        5.204829   1.000000
    4        5.204829   1.000000
    5        7.930862   0.000000
    6        8.759066   0.000000
    7        8.759066   0.000000
    8       10.728132   0.000000
    9       12.722636   0.000000
   10       12.722636   0.000000
   11       14.555611   0.000000
   12       16.172767   0.000000
   13       18.486303   0.000000
   14       18.486303   0.000000
   15       22.655423   0.000000
   16       25.583994   0.000000
   17       25.583994   0.000000
   18       26.105331   0.000000
   19       29.242572   0.000000
   20       29.242572   0.000000
   21       31.634013   0.000000
   22       31.634013   0.000000
   23       32.910478   0.000000
   24       34.807506   0.000000
   25       36.755763   0.000000
   26       37.486395   0.000000
   27       37.486395   0.000000
   28       39.322265   0.000000
   29       39.322266   0.000000
   30       41.059868   0.000000
   31       41.059907   0.000000
   32       43.329463   0.000000
 
  0.1315789E+00  0.1315789E+00  0.1315789E+00  0.1250000E-01
    1       -5.978177   1.000000
    2        3.900269   1.000000
    3        5.304945   1.000000
    4        5.304945   1.000000
    5        8.030365   0.000000
    6        8.619218   0.000000
    7        8.619218   0.000000
    8       10.256747   0.000000
    9       12.820661   0.000000
   10       12.820661   0.000000
   11       14.327936   0.000000
   12       16.212815   0.000000
   13       18.043585   0.000000
   14       18.043585   0.000000
   15       22.206086   0.000000
   16       26.284700   0.000000
   17       26.284700   0.000000
   18       26.608180   0.000000
   19       29.214689   0.000000
   20       29.214689   0.000000
   21       31.551617   0.000000
   22       31.551617   0.000000
   23       32.529223   0.000000
   24       34.721000   0.000000
   25       36.837056   0.000000
   26       36.837056   0.000000
   27       37.557766   0.000000
   28       39.539445   0.000000
   29       39.539446   0.000000
   30       41.821652   0.000000
   31       41.821657   0.000000
   32       43.714931   0.000000
 
  0.1052632E+00  0.1052632E+00  0.1052632E+00  0.1250000E-01
    1       -6.057712   1.000000
    2        4.376932   1.000000
    3        5.400010   1.000000
    4        5.400010   1.000000
    5        8.118132   0.000000
    6        8.480770   0.000000
    7        8.480770   0.000000
    8        9.799763   0.000000
    9       12.946462   0.000000
   10       12.946462   0.000000
   11       14.067765   0.000000
   12       16.343594   0.000000
   13       17.642708   0.000000
   14       17.642708   0.000000
   15       21.786424   0.000000
   16       26.963565   0.000000
   17       26.963565   0.000000
   18       27.115917   0.000000
   19       29.205166   0.000000
   20       29.205166   0.000000
   21       31.457451   0.000000
   22       31.457451   0.000000
   23       32.131924   0.000000
   24       34.649247   0.000000
   25       36.158740   0.000000
   26       36.158740   0.000000
   27       38.321810   0.000000
   28       39.734066   0.000000
   29       39.734067   0.000000
   30       42.523394   0.000000
   31       42.523415   0.000000
   32       43.868047   0.000000
 
  0.7894737E-01  0.7894737E-01  0.7894737E-01  0.1250000E-01
    1       -6.119858   1.000000
    2        4.825918   1.000000
    3        5.484569   1.000000
    4        5.484569   1.000000
    5        8.184126   0.000000
    6        8.355840   0.000000
    7        8.355840   0.000000
    8        9.377366   0.000000
    9       13.081428   0.000000
   10       13.081428   0.000000
   11       13.830044   0.000000
   12       16.503338   0.000000
   13       17.298447   0.000000
   14       17.298447   0.000000
   15       21.421348   0.000000
   16       27.583697   0.000000
   17       27.583697   0.000000
   18       27.600710   0.000000
   19       29.228796   0.000000
   20       29.228796   0.000000
   21       31.343901   0.000000
   22       31.343901   0.000000
   23       31.736007   0.000000
   24       34.592862   0.000000
   25       35.525060   0.000000
   26       35.525060   0.000000
   27       39.011289   0.000000
   28       39.895241   0.000000
   29       39.895241   0.000000
   30       43.103158   0.000000
   31       43.103159   0.000000
   32       43.718450   0.000000
 
  0.5263158E-01  0.5263158E-01  0.5263158E-01  0.1250000E-01
    1       -6.164380   1.000000
    2        5.218461   1.000000
    3        5.552224   1.000000
    4        5.552224   1.000000
    5        8.212823   0.000000
    6        8.255943   0.000000
    7        8.255943   0.000000
    8        9.027962   0.000000
    9       13.204132   0.000000
   10       13.204132   0.000000
   11       13.644580   0.000000
   12       16.651324   0.000000
   13       17.028859   0.000000
   14       17.028859   0.000000
   15       21.134007   0.000000
   16       28.029942   0.000000
   17       28.081652   0.000000
   18       28.081652   0.000000
   19       29.314465   0.000000
   20       29.314465   0.000000
   21       31.205433   0.000000
   22       31.205433   0.000000
   23       31.373075   0.000000
   24       34.553030   0.000000
   25       34.999386   0.000000
   26       34.999386   0.000000
   27       39.582993   0.000000
   28       40.016003   0.000000
   29       40.016003   0.000000
   30       43.533464   0.000000
   31       43.533464   0.000000
   32       43.568173   0.000000
 
  0.2631579E-01  0.2631579E-01  0.2631579E-01  0.1250000E-01
    1       -6.191142   1.000000
    2        5.503651   1.000000
    3        5.596313   1.000000
    4        5.596313   1.000000
    5        8.191158   0.000000
    6        8.191158   0.000000
    7        8.193079   0.000000
    8        8.808184   0.000000
    9       13.291348   0.000000
   10       13.291348   0.000000
   11       13.527610   0.000000
   12       16.755884   0.000000
   13       16.854464   0.000000
   14       16.854464   0.000000
   15       20.947972   0.000000
   16       28.346502   0.000000
   17       28.378850   0.000000
   18       28.378850   0.000000
   19       29.463034   0.000000
   20       29.463034   0.000000
   21       31.060233   0.000000
   22       31.060233   0.000000
   23       31.096463   0.000000
   24       34.528566   0.000000
   25       34.645609   0.000000
   26       34.645609   0.000000
   27       39.974484   0.000000
   28       40.090894   0.000000
   29       40.090894   0.000000
   30       43.449803   0.000000
   31       43.802940   0.000000
   32       43.802945   0.000000
 
  0.2775558E-16  0.2775558E-16  0.2775558E-16  0.1250000E-01
    1       -6.200053   1.000000
    2        5.611707   1.000000
    3        5.611708   1.000000
    4        5.611708   1.000000
    5        8.168682   0.000000
    6        8.168683   0.000000
    7        8.168683   0.000000
    8        8.740260   0.000000
    9       13.323151   0.000000
   10       13.323151   0.000000
   11       13.487704   0.000000
   12       16.793851   0.000000
   13       16.793851   0.000000
   14       16.793851   0.000000
   15       20.883237   0.000000
   16       28.469346   0.000000
   17       28.469346   0.000000
   18       28.469351   0.000000
   19       29.554762   0.000000
   20       29.554762   0.000000
   21       30.987899   0.000000
   22       30.987899   0.000000
   23       30.987904   0.000000
   24       34.520461   0.000000
   25       34.520472   0.000000
   26       34.520472   0.000000
   27       40.116308   0.000000
   28       40.116309   0.000000
   29       40.116325   0.000000
   30       43.402959   0.000000
   31       43.895933   0.000000
   32       43.895984   0.000000
 
  0.0000000E+00  0.0000000E+00  0.0000000E+00  0.1250000E-01
    1       -6.200053   1.000000
    2        5.611707   1.000000
    3        5.611708   1.000000
    4        5.611708   1.000000
    5        8.168682   0.000000
    6        8.168683   0.000000
    7        8.168683   0.000000
    8        8.740260   0.000000
    9       13.323151   0.000000
   10       13.323151   0.000000
   11       13.487704   0.000000
   12       16.793851   0.000000
   13       16.793851   0.000000
   14       16.793851   0.000000
   15       20.883237   0.000000
   16       28.469346   0.000000
   17       28.469346   0.000000
   18       28.469351   0.000000
   19       29.554762   0.000000
   20       29.554762   0.000000
   21       30.987899   0.000000
   22       30.987899   0.000000
   23       30.987904   0.000000
   24       34.520461   0.000000
   25       34.520472   0.000000
   26       34.520472   0.000000
   27       40.116308   0.000000
   28       40.116309   0.000000
   29       40.116324   0.000000
   30       43.402953   0.000000
   31       43.895931   0.000000
   32       43.895956   0.000000
 
  0.2631579E-01  0.0000000E+00  0.2631579E-01  0.1250000E-01
    1       -6.188164   1.000000
    2        5.526366   1.000000
    3        5.561399   1.000000
    4        5.561399   1.000000
    5        8.139194   0.000000
    6        8.233637   0.000000
    7        8.233637   0.000000
    8        8.823788   0.000000
    9       13.226386   0.000000
   10       13.336374   0.000000
   11       13.540862   0.000000
   12       16.814602   0.000000
   13       16.814602   0.000000
   14       16.861620   0.000000
   15       20.970221   0.000000
   16       28.274773   0.000000
   17       28.274776   0.000000
   18       28.484530   0.000000
   19       29.399558   0.000000
   20       29.437373   0.000000
   21       31.068611   0.000000
   22       31.116821   0.000000
   23       31.116825   0.000000
   24       34.611794   0.000000
   25       34.611802   0.000000
   26       34.682904   0.000000
   27       40.029487   0.000000
   28       40.029498   0.000000
   29       40.030739   0.000000
   30       43.465539   0.000000
   31       43.684138   0.000000
   32       43.864452   0.000000
 
  0.5263158E-01  0.0000000E+00  0.5263158E-01  0.1250000E-01
    1       -6.152461   1.000000
    2        5.294464   1.000000
    3        5.424324   1.000000
    4        5.424324   1.000000
    5        8.054575   0.000000
    6        8.414661   0.000000
    7        8.414661   0.000000
    8        9.046615   0.000000
    9       12.969645   0.000000
   10       13.376042   0.000000
   11       13.696380   0.000000
   12       16.876947   0.000000
   13       16.876947   0.000000
   14       17.038613   0.000000
   15       21.227081   0.000000
   16       27.795394   0.000000
   17       27.795396   0.000000
   18       28.530465   0.000000
   19       28.982985   0.000000
   20       29.147994   0.000000
   21       31.253802   0.000000
   22       31.400669   0.000000
   23       31.400673   0.000000
   24       34.886543   0.000000
   25       34.886550   0.000000
   26       35.118469   0.000000
   27       39.775359   0.000000
   28       39.775368   0.000000
   29       39.787563   0.000000
   30       43.115831   0.000000
   31       43.603931   0.000000
   32       43.773582   0.000000
 
  0.7894737E-01  0.0000000E+00  0.7894737E-01  0.1250000E-01
    1       -6.092994   1.000000
    2        4.963861   1.000000
    3        5.229603   1.000000
    4        5.229603   1.000000
    5        7.924833   0.000000
    6        8.682437   0.000000
    7        8.682437   0.000000
    8        9.347372   0.000000
    9       12.627598   0.000000
   10       13.442143   0.000000
   11       13.943883   0.000000
   12       16.980747   0.000000
   13       16.980747   0.000000
   14       17.275024   0.000000
   15       21.640909   0.000000
   16       27.177539   0.000000
   17       27.177541   0.000000
   18       28.406032   0.000000
   19       28.608386   0.000000
   20       28.764129   0.000000
   21       31.464497   0.000000
   22       31.700183   0.000000
   23       31.700189   0.000000
   24       35.337116   0.000000
   25       35.337122   0.000000
   26       35.727005   0.000000
   27       39.370565   0.000000
   28       39.370573   0.000000
   29       39.412521   0.000000
   30       42.317119   0.000000
   31       43.491077   0.000000
   32       43.632921   0.000000
 
  0.1052632E+00  0.0000000E+00  0.1052632E+00  0.1250000E-01
    1       -6.009891   1.000000
    2        4.574406   1.000000
    3        5.003866   1.000000
    4        5.003867   1.000000
    5        7.762773   0.000000
    6        9.009932   0.000000
    7        9.009932   0.000000
    8        9.652951   0.000000
    9       12.286994   0.000000
   10       13.534663   0.000000
   11       14.269876   0.000000
   12       17.125405   0.000000
   13       17.125405   0.000000
   14       17.535758   0.000000
   15       22.190077   0.000000
   16       26.499621   0.000000
   17       26.499623   0.000000
   18       27.741241   0.000000
   19       28.327446   0.000000
   20       28.720570   0.000000
   21       31.656815   0.000000
   22       31.957969   0.000000
   23       31.957976   0.000000
   24       35.938877   0.000000
   25       35.938883   0.000000
   26       36.426337   0.000000
   27       38.837607   0.000000
   28       38.837614   0.000000
   29       38.923720   0.000000
   30       41.383033   0.000000
   31       42.842093   0.000000
   32       43.454823   0.000000
 
  0.1315789E+00  0.0000000E+00  0.1315789E+00  0.1250000E-01
    1       -5.903263   1.000000
    2        4.150961   1.000000
    3        4.765473   1.000000
    4        4.765473   1.000000
    5        7.581046   0.000000
    6        9.378243   0.000000
    7        9.378244   0.000000
    8        9.865796   0.000000
    9       12.057307   0.000000
   10       13.653565   0.000000
   11       14.660622   0.000000
   12       17.309759   0.000000
   13       17.309759   0.000000
   14       17.807396   0.000000
   15       22.847214   0.000000
   16       25.799209   0.000000
   17       25.799211   0.000000
   18       27.032920   0.000000
   19       27.860784   0.000000
   20       28.870713   0.000000
   21       31.809530   0.000000
   22       32.167486   0.000000
   23       32.167493   0.000000
   24       36.651545   0.000000
   25       36.651550   0.000000
   26       37.160920   0.000000
   27       38.203839   0.000000
   28       38.203845   0.000000
   29       38.329445   0.000000
   30       40.377718   0.000000
   31       42.145076   0.000000
   32       43.251858   0.000000
 
  0.1578947E+00  0.0000000E+00  0.1578947E+00  0.1250000E-01
    1       -5.773269   1.000000
    2        3.707772   1.000000
    3        4.526098   1.000000
    4        4.526099   1.000000
    5        7.390588   0.000000
    6        9.775375   0.000000
    7        9.775375   0.000000
    8        9.871847   0.000000
    9       12.059865   0.000000
   10       13.799085   0.000000
   11       15.103656   0.000000
   12       17.532397   0.000000
   13       17.532398   0.000000
   14       18.089748   0.000000
   15       23.583047   0.000000
   16       25.097439   0.000000
   17       25.097440   0.000000
   18       26.306566   0.000000
   19       27.376185   0.000000