 written on 27May2020 at 13:22:34 
           8
         147
    1    1    1    1    1    2    1    1    1    1    1    2    1    1    1
    1    1    1    1    1    1    1    1    1    1    1    1    1    1    1
    1    1    1    1    1    1    1    1    1    1    1    1    1    1    1
    1    1    1    1    1    1    1    1    1    1    1    1    1    1    1
    1    1    1    1    1    1    1    2    1    1    1    1    1    1    1
    1    1    1    1    2    1    1    1    1    1    1    1    1    1    1
    1    1    1    1    1    1    1    1    1    1    1    1    1    1    1
    1    1    1    1    1    1    1    1    1    1    1    1    1    1    1
    1    1    1    1    1    1    1    1    1    1    1    1    1    1    1
    2    1    1    1    1    1    2    1    1    1    1    1
   -8   -4    0    1    1    0.058163   -0.000662
   -8   -4    0    2    1    0.005742   -0.000541
   -8   -4    0    3    1   -0.008125   -0.002006
   -8   -4    0    4    1   -0.003541    0.001160
   -8   -4    0    5    1    0.007740    0.004539
   -8   -4    0    6    1   -0.001239   -0.000350
   -8   -4    0    7    1   -0.029894   -0.003748
   -8   -4    0    8    1    0.012417   -0.002570
   -8   -4    0    1    2   -0.001519   -0.000552
   -8   -4    0    2    2   -0.004220   -0.000028
   -8   -4    0    3    2    0.005843    0.000535
   -8   -4    0    4    2   -0.004413   -0.000017
   -8   -4    0    5    2    0.000968   -0.000654
   -8   -4    0    6    2    0.018572   -0.000040
   -8   -4    0    7    2   -0.012906   -0.001559
   -8   -4    0    8    2    0.010235    0.001307
   -8   -4    0    1    3    0.007798   -0.003785
   -8   -4    0    2    3   -0.003036    0.000314
   -8   -4    0    3    3    0.020981    0.001432
   -8   -4    0    4    3   -0.037684    0.004103
   -8   -4    0    5    3   -0.012991    0.000453
   -8   -4    0    6    3   -0.003770    0.000504
   -8   -4    0    7    3   -0.012717   -0.002293
   -8   -4    0    8    3   -0.005937    0.000924
   -8   -4    0    1    4    0.005314    0.000942
   -8   -4    0    2    4    0.000296   -0.000710
   -8   -4    0    3    4   -0.041618   -0.006222
   -8   -4    0    4    4    0.003735    0.000194
   -8   -4    0    5    4    0.009882    0.002602
   -8   -4    0    6    4   -0.013319    0.000902
   -8   -4    0    7    4   -0.008250   -0.001742
   -8   -4    0    8    4   -0.026789    0.001747
   -8   -4    0    1    5    0.012651    0.002894
   -8   -4    0    2    5   -0.003440    0.000846
   -8   -4    0    3    5   -0.013959   -0.001070
   -8   -4    0    4    5    0.022773    0.000069
   -8   -4    0    5    5   -0.011600   -0.001726
   -8   -4    0    6    5   -0.001579    0.000182
   -8   -4    0    7    5   -0.001099   -0.000254
   -8   -4    0    8    5   -0.007538   -0.000337
   -8   -4    0    1    6   -0.000846   -0.001767
   -8   -4    0    2    6   -0.000669   -0.000048
   -8   -4    0    3    6   -0.003972   -0.000620
   -8   -4    0    4    6   -0.014696   -0.000566
   -8   -4    0    5    6   -0.000261   -0.000145
   -8   -4    0    6    6   -0.000349   -0.000005
   -8   -4    0    7    6    0.000545    0.000210
   -8   -4    0    8    6   -0.001930   -0.000088
   -8   -4    0    1    7    0.037432   -0.002973
   -8   -4    0    2    7    0.010771   -0.000697
   -8   -4    0    3    7   -0.002000    0.000788
   -8   -4    0    4    7    0.010186   -0.001568
   -8   -4    0    5    7   -0.000231   -0.001073
   -8   -4    0    6    7   -0.000520   -0.000141
   -8   -4    0    7    7   -0.010286    0.000756
   -8   -4    0    8    7   -0.004127    0.000608
   -8   -4    0    1    8   -0.015653    0.000704
   -8   -4    0    2    8   -0.006307    0.000809
   -8   -4    0    3    8   -0.003420   -0.003387
   -8   -4    0    4    8    0.006721   -0.000986
   -8   -4    0    5    8    0.005541   -0.000103
   -8   -4    0    6    8    0.000810   -0.000056
   -8   -4    0    7    8   -0.007845   -0.000894
   -8   -4    0    8    8   -0.011393    0.000039
   -7   -5    0    1    1    0.009829   -0.000306
   -7   -5    0    2    1    0.003725   -0.000493
   -7   -5    0    3    1   -0.000513    0.000276
   -7   -5    0    4    1   -0.001677   -0.003203
   -7   -5    0    5    1   -0.000929   -0.001292
   -7   -5    0    6    1   -0.000906    0.000335
   -7   -5    0    7    1   -0.006449    0.000525
   -7   -5    0    8    1    0.004948    0.002971
   -7   -5    0    1    2    0.001346    0.000756
   -7   -5    0    2    2    0.004764    0.000054
   -7   -5    0    3    2    0.001388    0.000054
   -7   -5    0    4    2   -0.011818   -0.000811
   -7   -5    0    5    2    0.000443   -0.001404
   -7   -5    0    6    2    0.050547    0.000095
   -7   -5    0    7    2   -0.018530   -0.002622
   -7   -5    0    8    2    0.005504    0.001545
   -7   -5    0    1    3   -0.002345   -0.001483
   -7   -5    0    2    3   -0.003150    0.000692
   -7   -5    0    3    3    0.000033   -0.004506
   -7   -5    0    4    3   -0.009098    0.000342
   -7   -5    0    5    3   -0.028038   -0.004100
   -7   -5    0    6    3    0.007017   -0.000519
   -7   -5    0    7    3    0.029634    0.002077
   -7   -5    0    8    3    0.020484   -0.000299
   -7   -5    0    1    4    0.006547   -0.000040
   -7   -5    0    2    4   -0.012696    0.000871
   -7   -5    0    3    4   -0.007143    0.002721
   -7   -5    0    4    4    0.024573    0.001876
   -7   -5    0    5    4    0.041245    0.003826
   -7   -5    0    6    4    0.006642    0.000490
   -7   -5    0    7    4    0.036565    0.010883
   -7   -5    0    8    4    0.042805    0.007147
   -7   -5    0    1    5   -0.009314    0.002136
   -7   -5    0    2    5   -0.010941    0.001982
   -7   -5    0    3    5    0.024221    0.002924
   -7   -5    0    4    5    0.007179    0.001646
   -7   -5    0    5    5   -0.012504    0.002849
   -7   -5    0    6    5    0.000341    0.000223
   -7   -5    0    7    5    0.013446   -0.001025
   -7   -5    0    8    5   -0.001038    0.001465
   -7   -5    0    1    6   -0.002069    0.000487
   -7   -5    0    2    6    0.007026   -0.000087
   -7   -5    0    3    6    0.006106    0.001392
   -7   -5    0    4    6    0.000070   -0.000592
   -7   -5    0    5    6    0.001581    0.000245
   -7   -5    0    6    6   -0.010137   -0.000152
   -7   -5    0    7    6    0.005939    0.000797
   -7   -5    0    8    6    0.002818   -0.000098
   -7   -5    0    1    7    0.027220   -0.001573
   -7   -5    0    2    7   -0.011588    0.001662
   -7   -5    0    3    7    0.008820   -0.000211
   -7   -5    0    4    7    0.025157    0.000204
   -7   -5    0    5    7   -0.011828   -0.003147
   -7   -5    0    6    7    0.002207   -0.000142
   -7   -5    0    7    7    0.004509    0.000291
   -7   -5    0    8    7    0.000761   -0.000403
   -7   -5    0    1    8   -0.023330   -0.000331
   -7   -5    0    2    8    0.002035   -0.000538
   -7   -5    0    3    8    0.011958    0.002735
   -7   -5    0    4    8    0.014064   -0.001989
   -7   -5    0    5    8    0.000029   -0.000312
   -7   -5    0    6    8    0.001545   -0.000232
   -7   -5    0    7    8    0.000414    0.000671
   -7   -5    0    8    8   -0.000909   -0.000106
   -7   -4    0    1    1   -0.025547    0.000441
   -7   -4    0    2    1    0.001035   -0.000976
   -7   -4    0    3    1    0.009248    0.003641
   -7   -4    0    4    1   -0.002375    0.002687
   -7   -4    0    5    1    0.000468    0.000840
   -7   -4    0    6    1   -0.000936    0.001134
   -7   -4    0    7    1    0.015301    0.001897
   -7   -4    0    8    1   -0.004062    0.000795
   -7   -4    0    1    2    0.000349   -0.001168
   -7   -4    0    2    2    0.000793   -0.000097
   -7   -4    0    3    2    0.010248    0.000960
   -7   -4    0    4    2    0.009213   -0.000054
   -7   -4    0    5    2   -0.003564   -0.001278
   -7   -4    0    6    2    0.024285    0.000020
   -7   -4    0    7    2   -0.016594   -0.001554
   -7   -4    0    8    2    0.007349    0.001013
   -7   -4    0    1    3   -0.002738    0.002867
   -7   -4    0    2    3    0.003109   -0.000309
   -7   -4    0    3    3    0.029448   -0.000948
   -7   -4    0    4    3    0.009700   -0.001481
   -7   -4    0    5    3    0.003257    0.000174
   -7   -4    0    6    3    0.000913    0.000153
   -7   -4    0    7    3   -0.024590   -0.001791
   -7   -4    0    8    3   -0.012314   -0.000437
   -7   -4    0    1    4    0.000701    0.000061
   -7   -4    0    2    4    0.009761   -0.000051
   -7   -4    0    3    4   -0.001496    0.002835
   -7   -4    0    4    4   -0.019468    0.000788
   -7   -4    0    5    4   -0.002370   -0.002999
   -7   -4    0    6    4    0.004610   -0.000885
   -7   -4    0    7    4   -0.002765    0.003135
   -7   -4    0    8    4    0.017956    0.000196
   -7   -4    0    1    5    0.007575   -0.002313
   -7   -4    0    2    5   -0.008657    0.001145
   -7   -4    0    3    5   -0.003035   -0.001030
   -7   -4    0    4    5   -0.015783   -0.001249
   -7   -4    0    5    5   -0.016916    0.000583
   -7   -4    0    6    5   -0.000746    0.000418
   -7   -4    0    7    5    0.000867   -0.000041
   -7   -4    0    8    5    0.001122    0.000457
   -7   -4    0    1    6   -0.002095    0.000875
   -7   -4    0    2    6   -0.000892   -0.000273
   -7   -4    0    3    6   -0.001039    0.000262
   -7   -4    0    4    6    0.005417    0.000627
   -7   -4    0    5    6    0.000908   -0.000255
   -7   -4    0    6    6   -0.000779    0.000048
   -7   -4    0    7    6    0.000073    0.000273
   -7   -4    0    8    6    0.000206   -0.000248
   -7   -4    0    1    7   -0.045764    0.007809
   -7   -4    0    2    7   -0.003071    0.000827
   -7   -4    0    3    7   -0.009978    0.000646
   -7   -4    0    4    7   -0.020992    0.001215
   -7   -4    0    5    7   -0.007934   -0.001638
   -7   -4    0    6    7   -0.000500    0.000297
   -7   -4    0    7    7    0.004359   -0.000515
   -7   -4    0    8    7    0.006367   -0.000842
   -7   -4    0    1    8   -0.006644    0.006841
   -7   -4    0    2    8   -0.014515    0.001695
   -7   -4    0    3    8   -0.017641   -0.002939
   -7   -4    0    4    8   -0.011031    0.001069
   -7   -4    0    5    8   -0.001337   -0.002283
   -7   -4    0    6    8    0.000481   -0.000023
   -7   -4    0    7    8    0.002800    0.000191
   -7   -4    0    8    8    0.009133   -0.000298
   -7   -3    0    1    1   -0.022267   -0.000028
   -7   -3    0    2    1    0.000337   -0.000013
   -7   -3    0    3    1   -0.004808    0.001012
   -7   -3    0    4    1    0.004000   -0.001814
   -7   -3    0    5    1   -0.012146   -0.002395
   -7   -3    0    6    1   -0.000763    0.000718
   -7   -3    0    7    1    0.017767    0.001047
   -7   -3    0    8    1    0.014322    0.004307
   -7   -3    0    1    2    0.002533    0.000540
   -7   -3    0    2    2   -0.000298   -0.000142
   -7   -3    0    3    2    0.001585    0.000053
   -7   -3    0    4    2   -0.009804   -0.000547
   -7   -3    0    5    2   -0.002241   -0.000299
   -7   -3    0    6    2    0.005324   -0.000086
   -7   -3    0    7    2   -0.010137   -0.000828
   -7   -3    0    8    2    0.000196   -0.000091
   -7   -3    0    1    3   -0.007091    0.003505
   -7   -3    0    2    3   -0.005795    0.001035
   -7   -3    0    3    3   -0.029465    0.002185
   -7   -3    0    4    3   -0.008495   -0.002687
   -7   -3    0    5    3    0.023762   -0.000606
   -7   -3    0    6    3    0.006634   -0.001621
   -7   -3    0    7    3    0.016331    0.001950
   -7   -3    0    8    3    0.007385   -0.002228
   -7   -3    0    1    4    0.002177   -0.000469
   -7   -3    0    2    4   -0.013717    0.000091
   -7   -3    0    3    4    0.002277    0.002170
   -7   -3    0    4    4    0.016854    0.000894
   -7   -3    0    5    4    0.021156   -0.002463
   -7   -3    0    6    4    0.003867    0.000274
   -7   -3    0    7    4    0.039648    0.003284
   -7   -3    0    8    4    0.042289    0.001267
   -7   -3    0    1    5   -0.017549    0.003061
   -7   -3    0    2    5    0.003145    0.000430
   -7   -3    0    3    5    0.008224   -0.000025
   -7   -3    0    4    5    0.004845    0.000461
   -7   -3    0    5    5    0.007488   -0.003851
   -7   -3    0    6    5   -0.002277    0.000071
   -7   -3    0    7    5   -0.011414   -0.000547
   -7   -3    0    8    5   -0.009130    0.000272
   -7   -3    0    1    6   -0.001641   -0.000027
   -7   -3    0    2    6    0.006532   -0.000148
   -7   -3    0    3    6    0.006901    0.001363
   -7   -3    0    4    6    0.000359   -0.000671
   -7   -3    0    5    6    0.001415    0.000191
   -7   -3    0    6    6    0.000638    0.000078
   -7   -3    0    7    6    0.003615    0.000378
   -7   -3    0    8    6    0.002991   -0.000052
   -7   -3    0    1    7    0.011874   -0.003812
   -7   -3    0    2    7    0.002761    0.000360
   -7   -3    0    3    7    0.012279    0.000470
   -7   -3    0    4    7    0.027571    0.000956
   -7   -3    0    5    7    0.000566    0.000960
   -7   -3    0    6    7    0.002896   -0.000393
   -7   -3    0    7    7    0.003722    0.001292
   -7   -3    0    8    7    0.000604   -0.000840
   -7   -3    0    1    8    0.003231   -0.002025
   -7   -3    0    2    8   -0.016207    0.002380
   -7   -3    0    3    8    0.008763    0.002510
   -7   -3    0    4    8    0.026774   -0.002521
   -7   -3    0    5    8   -0.000369    0.000360
   -7   -3    0    6    8    0.003473   -0.000360
   -7   -3    0    7    8   -0.000180    0.000665
   -7   -3    0    8    8    0.004344   -0.000429
   -7   -2    0    1    1    0.009044   -0.000274
   -7   -2    0    2    1    0.000153   -0.000408
   -7   -2    0    3    1   -0.000795   -0.000465
   -7   -2    0    4    1   -0.001085    0.002379
   -7   -2    0    5    1   -0.010432    0.002808
   -7   -2    0    6    1    0.000458    0.000828
   -7   -2    0    7    1    0.003170    0.001407
   -7   -2    0    8    1    0.012222   -0.000134
   -7   -2    0    1    2   -0.001968   -0.001076
   -7   -2    0    2    2    0.004682    0.000013
   -7   -2    0    3    2    0.008681    0.000577
   -7   -2    0    4    2    0.012911    0.000450
   -7   -2    0    5    2   -0.001651    0.000299
   -7   -2    0    6    2    0.019742   -0.000018
   -7   -2    0    7    2   -0.005967   -0.000485
   -7   -2    0    8    2   -0.014986   -0.001891
   -7   -2    0    1    3   -0.007868    0.001061
   -7   -2    0    2    3    0.009297   -0.000267
   -7   -2    0    3    3    0.005007   -0.003318
   -7   -2    0    4    3    0.027151    0.000127
   -7   -2    0    5    3    0.008998    0.001692
   -7   -2    0    6    3   -0.000441    0.000017
   -7   -2    0    7    3   -0.015599   -0.001930
   -7   -2    0    8    3   -0.008532    0.000828
   -7   -2    0    1    4    0.007866   -0.000416
   -7   -2    0    2    4    0.008118   -0.000412
   -7   -2    0    3    4    0.016254    0.005106
   -7   -2    0    4    4   -0.032504   -0.001229
   -7   -2    0    5    4   -0.008269    0.002173
   -7   -2    0    6    4    0.005817   -0.000833
   -7   -2    0    7    4   -0.015169    0.000779
   -7   -2    0    8    4    0.016747   -0.001529
   -7   -2    0    1    5    0.009542    0.000129
   -7   -2    0    2    5   -0.000040    0.001120
   -7   -2    0    3    5   -0.018845   -0.004769
   -7   -2    0    4    5   -0.023219    0.003414
   -7   -2    0    5    5    0.032046    0.002771
   -7   -2    0    6    5   -0.001955   -0.000194
   -7   -2    0    7    5   -0.013867    0.000449
   -7   -2    0    8    5    0.009232    0.000176
   -7   -2    0    1    6   -0.001268   -0.000330
   -7   -2    0    2    6    0.021984    0.000051
   -7   -2    0    3    6   -0.000170   -0.000199
   -7   -2    0    4    6    0.007651    0.000757
   -7   -2    0    5    6    0.001386    0.000658
   -7   -2    0    6    6   -0.008800   -0.000021
   -7   -2    0    7    6   -0.001430   -0.000123
   -7   -2    0    8    6    0.002963   -0.000029
   -7   -2    0    1    7   -0.004387    0.003459
   -7   -2    0    2    7    0.000475   -0.000274
   -7   -2    0    3    7   -0.014479    0.003764
   -7   -2    0    4    7   -0.017518    0.000663
   -7   -2    0    5    7    0.014802   -0.000540
   -7   -2    0    6    7   -0.000728    0.000209
   -7   -2    0    7    7    0.000340    0.002022
   -7   -2    0    8    7   -0.001462   -0.000902
   -7   -2    0    1    8   -0.009340    0.003959
   -7   -2    0    2    8   -0.009671    0.001197
   -7   -2    0    3    8   -0.012119   -0.000397
   -7   -2    0    4    8   -0.007571    0.000707
   -7   -2    0    5    8   -0.002649   -0.000560
   -7   -2    0    6    8    0.001010    0.000256
   -7   -2    0    7    8    0.002057    0.001565
   -7   -2    0    8    8    0.010345    0.000036
   -6   -6    0    1    1    0.010893    0.000000
   -6   -6    0    2    1    0.001407    0.000202
   -6   -6    0    3    1   -0.002540   -0.000046
   -6   -6    0    4    1    0.003320    0.001962
   -6   -6    0    5    1    0.001318    0.001108
   -6   -6    0    6    1   -0.001053    0.000148
   -6   -6    0    7    1    0.007815    0.002268
   -6   -6    0    8    1   -0.003607   -0.002775
   -6   -6    0    1    2    0.001407   -0.000202
   -6   -6    0    2    2    0.008515   -0.000000
   -6   -6    0    3    2    0.011357    0.000843
   -6   -6    0    4    2    0.001095    0.000017
   -6   -6    0    5    2   -0.004440   -0.001979
   -6   -6    0    6    2    0.060192    0.000121
   -6   -6    0    7    2   -0.015794   -0.001893
   -6   -6    0    8    2    0.010025    0.002179
   -6   -6    0    1    3   -0.002540    0.000046
   -6   -6    0    2    3    0.011357   -0.000843
   -6   -6    0    3    3    0.017225    0.000000
   -6   -6    0    4    3   -0.043010    0.004268
   -6   -6    0    5    3   -0.017214    0.002510
   -6   -6    0    6    3   -0.005747    0.000886
   -6   -6    0    7    3    0.004516   -0.001502
   -6   -6    0    8    3   -0.007626    0.004082
   -6   -6    0    1    4    0.003320   -0.001962
   -6   -6    0    2    4    0.001095   -0.000017
   -6   -6    0    3    4   -0.043010   -0.004268
   -6   -6    0    4    4    0.006771    0.000000
   -6   -6    0    5    4    0.024291   -0.000218
   -6   -6    0    6    4   -0.014341    0.000883
   -6   -6    0    7    4    0.017427    0.002582
   -6   -6    0    8    4    0.009069   -0.000001
   -6   -6    0    1    5    0.001318   -0.001108
   -6   -6    0    2    5   -0.004440    0.001979
   -6   -6    0    3    5   -0.017214   -0.002510
   -6   -6    0    4    5    0.024291    0.000218
   -6   -6    0    5    5   -0.065343   -0.000000
   -6   -6    0    6    5    0.000152    0.000500
   -6   -6    0    7    5    0.000116    0.001593
   -6   -6    0    8    5    0.004219    0.001299
   -6   -6    0    1    6   -0.001053   -0.000148
   -6   -6    0    2    6    0.060192   -0.000121
   -6   -6    0    3    6   -0.005747   -0.000886
   -6   -6    0    4    6   -0.014341   -0.000883
   -6   -6    0    5    6    0.000152   -0.000500
   -6   -6    0    6    6   -0.030143    0.000000
   -6   -6    0    7    6    0.000296   -0.000530
   -6   -6    0    8    6   -0.001568   -0.000561
   -6   -6    0    1    7    0.007815   -0.002268
   -6   -6    0    2    7   -0.015794    0.001893
   -6   -6    0    3    7    0.004516    0.001502
   -6   -6    0    4    7    0.017427   -0.002582
   -6   -6    0    5    7    0.000116   -0.001593
   -6   -6    0    6    7    0.000296    0.000530
   -6   -6    0    7    7    0.004833   -0.000000
   -6   -6    0    8    7   -0.002939    0.001011
   -6   -6    0    1    8   -0.003607    0.002775
   -6   -6    0    2    8    0.010025   -0.002179
   -6   -6    0    3    8   -0.007626   -0.004082
   -6   -6    0    4    8    0.009069    0.000001
   -6   -6    0    5    8    0.004219   -0.001299
   -6   -6    0    6    8   -0.001568    0.000561
   -6   -6    0    7    8   -0.002939   -0.001011
   -6   -6    0    8    8   -0.006851   -0.000000
   -6   -5    0    1    1   -0.014133   -0.000114
   -6   -5    0    2    1    0.002273   -0.000117
   -6   -5    0    3    1   -0.000617    0.000047
   -6   -5    0    4    1    0.000205   -0.001577
   -6   -5    0    5    1    0.003689   -0.003693
   -6   -5    0    6    1   -0.001883    0.000478
   -6   -5    0    7    1    0.005109   -0.002516
   -6   -5    0    8    1    0.003002    0.000225
   -6   -5    0    1    2   -0.000093    0.000332
   -6   -5    0    2    2    0.009035   -0.000111
   -6   -5    0    3    2    0.007934    0.000255
   -6   -5    0    4    2    0.008706    0.000614
   -6   -5    0    5    2    0.002837   -0.001359
   -6   -5    0    6    2    0.057220   -0.000108
   -6   -5    0    7    2   -0.014657   -0.000912
   -6   -5    0    8    2    0.007274    0.001331
   -6   -5    0    1    3    0.002393   -0.000268
   -6   -5    0    2    3    0.002053   -0.000392
   -6   -5    0    3    3   -0.013877   -0.002859
   -6   -5    0    4    3    0.012588   -0.004340
   -6   -5    0    5    3    0.017377   -0.000190
   -6   -5    0    6    3    0.004278   -0.001191
   -6   -5    0    7    3   -0.006582   -0.000202
   -6   -5    0    8    3   -0.000529   -0.003501
   -6   -5    0    1    4   -0.009380    0.000687
   -6   -5    0    2    4    0.015016   -0.000756
   -6   -5    0    3    4    0.029768    0.000672
   -6   -5    0    4    4    0.026229    0.000532
   -6   -5    0    5    4   -0.029423   -0.010994
   -6   -5    0    6    4    0.000564   -0.000023
   -6   -5    0    7    4    0.000261   -0.002411
   -6   -5    0    8    4   -0.029632   -0.005444
   -6   -5    0    1    5    0.000328   -0.000095
   -6   -5    0    2    5   -0.011973    0.001147
   -6   -5    0    3    5    0.008109    0.000073
   -6   -5    0    4    5   -0.008691   -0.003981
   -6   -5    0    5    5    0.009232    0.001562
   -6   -5    0    6    5   -0.000997    0.000365
   -6   -5    0    7    5   -0.002462   -0.002969
   -6   -5    0    8    5   -0.008110   -0.001384
   -6   -5    0    1    6   -0.001044   -0.000314
   -6   -5    0    2    6    0.024206   -0.000314
   -6   -5    0    3    6    0.005275    0.000814
   -6   -5    0    4    6    0.003217    0.000060
   -6   -5    0    5    6   -0.005139    0.000236
   -6   -5    0    6    6   -0.018830    0.000164
   -6   -5    0    7    6    0.001854    0.000046
   -6   -5    0    8    6   -0.001996   -0.000099
   -6   -5    0    1    7   -0.016472    0.002838
   -6   -5    0    2    7   -0.020948    0.002691
   -6   -5    0    3    7    0.008818   -0.001709
   -6   -5    0    4    7   -0.009526   -0.003605
   -6   -5    0    5    7   -0.008633    0.000998
   -6   -5    0    6    7    0.003762   -0.000203
   -6   -5    0    7    7    0.002823    0.000453
   -6   -5    0    8    7   -0.004151    0.000717
   -6   -5    0    1    8    0.007432   -0.000804
   -6   -5    0    2    8    0.000617   -0.000499
   -6   -5    0    3    8    0.004574    0.001401
   -6   -5    0    4    8   -0.007152    0.001189
   -6   -5    0    5    8   -0.012655   -0.001583
   -6   -5    0    6    8   -0.000345    0.000806
   -6   -5    0    7    8   -0.001312   -0.001225
   -6   -5    0    8    8   -0.005290    0.000373
   -6   -4    0    1    1    0.023682    0.000266
   -6   -4    0    2    1    0.001145   -0.000085
   -6   -4    0    3    1   -0.010066   -0.002267
   -6   -4    0    4    1    0.006081    0.001386
   -6   -4    0    5    1   -0.006487    0.001687
   -6   -4    0    6    1   -0.001563   -0.000534
   -6   -4    0    7    1   -0.010912    0.000163
   -6   -4    0    8    1   -0.002985   -0.003873
   -6   -4    0    1    2   -0.001385   -0.000667
   -6   -4    0    2    2    0.002191   -0.000208
   -6   -4    0    3    2    0.005939    0.000613
   -6   -4    0    4    2   -0.004584    0.000122
   -6   -4    0    5    2    0.005220   -0.001041
   -6   -4    0    6    2    0.019081   -0.000188
   -6   -4    0    7    2    0.005939    0.001768
   -6   -4    0    8    2    0.008297    0.000347
   -6   -4    0    1    3    0.000635    0.000535
   -6   -4    0    2    3    0.002086   -0.001057
   -6   -4    0    3    3   -0.002001   -0.000912
   -6   -4    0    4    3   -0.037872    0.001773
   -6   -4    0    5    3    0.022187   -0.002256
   -6   -4    0    6    3   -0.005354    0.000175
   -6   -4    0    7    3   -0.011896    0.000020
   -6   -4    0    8    3   -0.011175    0.001305
   -6   -4    0    1    4    0.001846    0.000683
   -6   -4    0    2    4    0.003916   -0.000060
   -6   -4    0    3    4   -0.040565   -0.005815
   -6   -4    0    4    4   -0.000252    0.000997
   -6   -4    0    5    4   -0.024451   -0.002037
   -6   -4    0    6    4   -0.016417    0.000682
   -6   -4    0    7    4   -0.016464   -0.010182
   -6   -4    0    8    4   -0.034218   -0.003440
   -6   -4    0    1    5   -0.001259   -0.001260
   -6   -4    0    2    5   -0.005247    0.000232
   -6   -4    0    3    5    0.002389   -0.002286
   -6   -4    0    4    5    0.014967   -0.002932
   -6   -4    0    5    5    0.007752   -0.001936
   -6   -4    0    6    5    0.001252    0.000110
   -6   -4    0    7    5    0.000571    0.001283
   -6   -4    0    8    5   -0.005347    0.000833
   -6   -4    0    1    6   -0.000563   -0.001374
   -6   -4    0    2    6   -0.010860   -0.000422
   -6   -4    0    3    6   -0.002826    0.000040
   -6   -4    0    4    6   -0.013422   -0.000790
   -6   -4    0    5    6   -0.000656    0.000454
   -6   -4    0    6    6   -0.002121    0.000247
   -6   -4    0    7    6   -0.000854   -0.000131
   -6   -4    0    8    6   -0.001664    0.000159
   -6   -4    0    1    7    0.017595   -0.004861
   -6   -4    0    2    7   -0.007882    0.001395
   -6   -4    0    3    7   -0.002813    0.001628
   -6   -4    0    4    7    0.004072   -0.001516
   -6   -4    0    5    7    0.012489    0.000210
   -6   -4    0    6    7    0.000895   -0.000723
   -6   -4    0    7    7   -0.005175    0.002022
   -6   -4    0    8    7   -0.001187   -0.000350
   -6   -4    0    1    8    0.019348   -0.000703
   -6   -4    0    2    8   -0.005970    0.001138
   -6   -4    0    3    8   -0.000308   -0.001242
   -6   -4    0    4    8    0.008015   -0.002692
   -6   -4    0    5    8   -0.003306   -0.000989
   -6   -4    0    6    8    0.002511    0.000122
   -6   -4    0    7    8   -0.006850    0.000160
   -6   -4    0    8    8   -0.005858   -0.000475
   -6   -3    0    1    1    0.022671   -0.000538
   -6   -3    0    2    1    0.003003    0.000429
   -6   -3    0    3    1   -0.002934   -0.002401
   -6   -3    0    4    1   -0.001440   -0.001401
   -6   -3    0    5    1    0.010306   -0.000260
   -6   -3    0    6    1   -0.002311   -0.001014
   -6   -3    0    7    1   -0.019128   -0.004064
   -6   -3    0    8    1   -0.008522   -0.002449
   -6   -3    0    1    2   -0.001249    0.001001
   -6   -3    0    2    2    0.002804   -0.000352
   -6   -3    0    3    2    0.000329    0.000033
   -6   -3    0    4    2    0.011924    0.000741
   -6   -3    0    5    2   -0.001064   -0.000633
   -6   -3    0    6    2   -0.020278   -0.000253
   -6   -3    0    7    2    0.009067    0.002540
   -6   -3    0    8    2    0.001453   -0.000825
   -6   -3    0    1    3    0.007606   -0.002425
   -6   -3    0    2    3   -0.004644    0.000100
   -6   -3    0    3    3   -0.007057    0.003905
   -6   -3    0    4    3    0.039149   -0.005104
   -6   -3    0    5    3    0.002466   -0.001730
   -6   -3    0    6    3    0.007129   -0.000780
   -6   -3    0    7    3    0.013882    0.001211
   -6   -3    0    8    3    0.004015   -0.001818
   -6   -3    0    1    4   -0.003266   -0.000887
   -6   -3    0    2    4    0.014542   -0.001083
   -6   -3    0    3    4    0.026658    0.000137
   -6   -3    0    4    4    0.012267    0.000105
   -6   -3    0    5    4   -0.038534   -0.000513
   -6   -3    0    6    4    0.002716    0.000154
   -6   -3    0    7    4   -0.030142   -0.002472
   -6   -3    0    8    4   -0.041720   -0.003478
   -6   -3    0    1    5    0.002688    0.003355
   -6   -3    0    2    5    0.000592    0.000365
   -6   -3    0    3    5   -0.011817    0.002317
   -6   -3    0    4    5   -0.019928   -0.000416
   -6   -3    0    5    5    0.002530   -0.004428
   -6   -3    0    6    5    0.000338    0.000164
   -6   -3    0    7    5   -0.012810    0.002858
   -6   -3    0    8    5   -0.003217   -0.000581
   -6   -3    0    1    6   -0.000057   -0.000725
   -6   -3    0    2    6   -0.012358   -0.000431
   -6   -3    0    3    6    0.006312    0.000880
   -6   -3    0    4    6    0.001736    0.000175
   -6   -3    0    5    6   -0.000216    0.000042
   -6   -3    0    6    6    0.009835    0.000351
   -6   -3    0    7    6   -0.001564   -0.000448
   -6   -3    0    8    6   -0.002463    0.000260
   -6   -3    0    1    7    0.014644   -0.002224
   -6   -3    0    2    7   -0.007395    0.001058
   -6   -3    0    3    7   -0.002096    0.000729
   -6   -3    0    4    7   -0.013806   -0.002421
   -6   -3    0    5    7    0.005944    0.000369
   -6   -3    0    6    7    0.000580   -0.000589
   -6   -3    0    7    7    0.008138    0.001400
   -6   -3    0    8    7   -0.000328    0.000105
   -6   -3    0    1    8   -0.000517   -0.005409
   -6   -3    0    2    8   -0.016506    0.002391
   -6   -3    0    3    8   -0.002541    0.002521
   -6   -3    0    4    8   -0.014458    0.001698
   -6   -3    0    5    8   -0.005486   -0.001411
   -6   -3    0    6    8   -0.000328   -0.000153
   -6   -3    0    7    8    0.000039    0.000633
   -6   -3    0    8    8   -0.005974   -0.000443
   -6   -2    0    1    1    0.022381    0.000324
   -6   -2    0    2    1    0.000927   -0.000151
   -6   -2    0    3    1   -0.004143   -0.001072
   -6   -2    0    4    1    0.003413    0.001227
   -6   -2    0    5    1    0.012662    0.001622
   -6   -2    0    6    1   -0.001470   -0.000521
   -6   -2    0    7    1   -0.008860   -0.002710
   -6   -2    0    8    1   -0.016573   -0.003547
   -6   -2    0    1    2    0.000066   -0.000080
   -6   -2    0    2    2    0.000468   -0.000397
   -6   -2    0    3    2    0.000157    0.000123
   -6   -2    0    4    2    0.001726    0.000145
   -6   -2    0    5    2   -0.008815   -0.000922
   -6   -2    0    6    2   -0.022151   -0.000335
   -6   -2    0    7    2    0.016938    0.002649
   -6   -2    0    8    2    0.002597   -0.000619
   -6   -2    0    1    3    0.007815   -0.003240
   -6   -2    0    2    3    0.001825   -0.000508
   -6   -2    0    3    3    0.003338    0.003925
   -6   -2    0    4    3   -0.038642    0.003071
   -6   -2    0    5    3   -0.015613    0.005087
   -6   -2    0    6    3   -0.004290    0.000662
   -6   -2    0    7    3   -0.010438   -0.003938
   -6   -2    0    8    3   -0.002012    0.003192
   -6   -2    0    1    4   -0.003240    0.000507
   -6   -2    0    2    4   -0.001597   -0.000975
   -6   -2    0    3    4   -0.034914   -0.009229
   -6   -2    0    4    4   -0.000136    0.002993
   -6   -2    0    5    4    0.006666    0.000695
   -6   -2    0    6    4   -0.014142    0.001023
   -6   -2    0    7    4   -0.006623   -0.003302
   -6   -2    0    8    4   -0.028335    0.000968
   -6   -2    0    1    5    0.000555   -0.001766
   -6   -2    0    2    5    0.010546    0.000520
   -6   -2    0    3    5   -0.036498   -0.003793
   -6   -2    0    4    5    0.051892   -0.001436
   -6   -2    0    5    5   -0.007123   -0.003880
   -6   -2    0    6    5   -0.000731   -0.000529
   -6   -2    0    7    5   -0.009863    0.002949
   -6   -2    0    8    5    0.002768   -0.002344
   -6   -2    0    1    6   -0.001197   -0.001274
   -6   -2    0    2    6    0.020327   -0.000373
   -6   -2    0    3    6   -0.006177   -0.001209
   -6   -2    0    4    6   -0.014061   -0.000369
   -6   -2    0    5    6    0.001967    0.000058
   -6   -2    0    6    6   -0.000443    0.000463
   -6   -2    0    7    6   -0.001055   -0.000520
   -6   -2    0    8    6    0.000061    0.000356
   -6   -2    0    1    7    0.000156    0.000407
   -6   -2    0    2    7    0.000145    0.000411
   -6   -2    0    3    7   -0.002037    0.000644
   -6   -2    0    4    7    0.013867   -0.002774
   -6   -2    0    5    7   -0.002959    0.000408
   -6   -2    0    6    7   -0.000792    0.000097
   -6   -2    0    7    7    0.004074   -0.003014
   -6   -2    0    8    7    0.002908   -0.000458
   -6   -2    0    1    8   -0.000006    0.000019
   -6   -2    0    2    8   -0.014599    0.002011
   -6   -2    0    3    8   -0.006385   -0.002845
   -6   -2    0    4    8    0.007360   -0.002818
   -6   -2    0    5    8    0.010528   -0.001261
   -6   -2    0    6    8    0.001031    0.000023
   -6   -2    0    7    8    0.004988    0.000116
   -6   -2    0    8    8   -0.004333   -0.000414
   -6   -1    0    1    1   -0.011888   -0.000077
   -6   -1    0    2    1    0.000444   -0.000192
   -6   -1    0    3    1   -0.000763   -0.001542
   -6   -1    0    4    1   -0.001816   -0.000385
   -6   -1    0    5    1   -0.011341   -0.004209
   -6   -1    0    6    1   -0.001931   -0.000230
   -6   -1    0    7    1   -0.001284    0.000624
   -6   -1    0    8    1   -0.012371    0.000952
   -6   -1    0    1    2    0.002178    0.000790
   -6   -1    0    2    2    0.007728   -0.000262
   -6   -1    0    3    2    0.009327    0.000603
   -6   -1    0    4    2    0.018678    0.000435
   -6   -1    0    5    2   -0.012837   -0.000162
   -6   -1    0    6    2    0.013983   -0.000200
   -6   -1    0    7    2    0.004019    0.000826
   -6   -1    0    8    2   -0.005274   -0.000695
   -6   -1    0    1    3   -0.003088   -0.001108
   -6   -1    0    2    3    0.007991   -0.000243
   -6   -1    0    3    3    0.021204    0.005240
   -6   -1    0    4    3    0.007483   -0.005315
   -6   -1    0    5    3   -0.024791    0.002015
   -6   -1    0    6    3    0.010730   -0.001141
   -6   -1    0    7    3   -0.004208    0.000116
   -6   -1    0    8    3    0.001039   -0.000503
   -6   -1    0    1    4   -0.001910    0.000838
   -6   -1    0    2    4    0.014200   -0.001547
   -6   -1    0    3    4    0.023188   -0.001921
   -6   -1    0    4    4    0.019101    0.002440
   -6   -1    0    5    4   -0.021516   -0.007865
   -6   -1    0    6    4    0.001669    0.000363
   -6   -1    0    7    4   -0.015290   -0.000532
   -6   -1    0    8    4   -0.040802   -0.003150
   -6   -1    0    1    5   -0.004822   -0.001712
   -6   -1    0    2    5    0.005600    0.000882
   -6   -1    0    3    5    0.045679    0.008674
   -6   -1    0    4    5   -0.054064   -0.006586
   -6   -1    0    5    5   -0.029040   -0.001640
   -6   -1    0    6    5   -0.002743    0.000365
   -6   -1    0    7    5    0.028578    0.001924
   -6   -1    0    8    5    0.012244    0.000106
   -6   -1    0    1    6   -0.002795    0.000178
   -6   -1    0    2    6    0.053698   -0.000314
   -6   -1    0    3    6    0.008153    0.001426
   -6   -1    0    4    6   -0.001416   -0.000283
   -6   -1    0    5    6   -0.002985    0.000043
   -6   -1    0    6    6   -0.016414    0.000467
   -6   -1    0    7    6    0.001331    0.000277
   -6   -1    0    8    6    0.000353    0.000359
   -6   -1    0    1    7    0.007054   -0.002852
   -6   -1    0    2    7   -0.005129    0.001130
   -6   -1    0    3    7    0.025360   -0.003793
   -6   -1    0    4    7   -0.037927    0.000902
   -6   -1    0    5    7   -0.028823    0.002503
   -6   -1    0    6    7    0.000580   -0.000074
   -6   -1    0    7    7    0.006501   -0.005752
   -6   -1    0    8    7    0.004787    0.000857
   -6   -1    0    1    8    0.004698   -0.004599
   -6   -1    0    2    8   -0.016611    0.001540
   -6   -1    0    3    8    0.009034    0.001659
   -6   -1    0    4    8   -0.036153    0.003909
   -6   -1    0    5    8   -0.003942   -0.000111
   -6   -1    0    6    8   -0.001765    0.000279
   -6   -1    0    7    8    0.009642   -0.001278
   -6   -1    0    8    8   -0.002006   -0.000416
   -6    0    0    1    1    0.009862    0.000000
   -6    0    0    2    1    0.000772    0.000155
   -6    0    0    3    1   -0.001383   -0.000687
   -6    0    0    4    1    0.001640    0.000377
   -6    0    0    5    1    0.008615    0.001601
   -6    0    0    6    1   -0.001692    0.000437
   -6    0    0    7    1   -0.004003   -0.003052
   -6    0    0    8    1    0.000992   -0.001909
   -6    0    0    1    2    0.000772   -0.000155
   -6    0    0    2    2    0.005571    0.000000
   -6    0    0    3    2    0.006757    0.001004
   -6    0    0    4    2    0.000367    0.000495
   -6    0    0    5    2   -0.003159   -0.000116
   -6    0    0    6    2    0.050251    0.000080
   -6    0    0    7    2    0.003030   -0.000222
   -6    0    0    8    2   -0.006619   -0.000670
   -6    0    0    1    3   -0.001383    0.000687
   -6    0    0    2    3    0.006757   -0.001004
   -6    0    0    3    3   -0.066129    0.000000
   -6    0    0    4    3   -0.024608    0.006833
   -6    0    0    5    3    0.028653   -0.000616
   -6    0    0    6    3   -0.005982   -0.000033
   -6    0    0    7    3   -0.036899    0.002691
   -6    0    0    8    3   -0.016730    0.002833
   -6    0    0    1    4    0.001640   -0.000377
   -6    0    0    2    4    0.000367   -0.000495
   -6    0    0    3    4   -0.024608   -0.006833
   -6    0    0    4    4   -0.001067    0.000000
   -6    0    0    5    4   -0.025575    0.000377
   -6    0    0    6    4   -0.016270    0.000979
   -6    0    0    7    4    0.012379   -0.004663
   -6    0    0    8    4   -0.025457    0.000371
   -6    0    0    1    5    0.008615   -0.001601
   -6    0    0    2    5   -0.003159    0.000116
   -6    0    0    3    5    0.028653    0.000616
   -6    0    0    4    5   -0.025575   -0.000377
   -6    0    0    5    5    0.054481   -0.000000
   -6    0    0    6    5   -0.002725   -0.000514
   -6    0    0    7    5   -0.001096   -0.004227
   -6    0    0    8    5   -0.037345   -0.001584
   -6    0    0    1    6   -0.001692   -0.000437
   -6    0    0    2    6    0.050251   -0.000080
   -6    0    0    3    6   -0.005982    0.000033
   -6    0    0    4    6   -0.016270   -0.000979
   -6    0    0    5    6   -0.002725    0.000514
   -6    0    0    6    6   -0.027127   -0.000000
   -6    0    0    7    6    0.001752    0.000128
   -6    0    0    8    6    0.000601   -0.000302
   -6    0    0    1    7   -0.004003    0.003052
   -6    0    0    2    7    0.003030    0.000222
   -6    0    0    3    7   -0.036899   -0.002691
   -6    0    0    4    7    0.012379    0.004663
   -6    0    0    5    7   -0.001096    0.004227
   -6    0    0    6    7    0.001752   -0.000128
   -6    0    0    7    7   -0.027972   -0.000000
   -6    0    0    8    7   -0.006018    0.001882
   -6    0    0    1    8    0.000992    0.001909
   -6    0    0    2    8   -0.006619    0.000670
   -6    0    0    3    8   -0.016730   -0.002833
   -6    0    0    4    8   -0.025457   -0.000371
   -6    0    0    5    8   -0.037345    0.001584
   -6    0    0    6    8    0.000601    0.000302
   -6    0    0    7    8   -0.006018   -0.001882
   -6    0    0    8    8   -0.001707   -0.000000
   -5   -6    0    1    1   -0.012484   -0.000259
   -5   -6    0    2    1    0.000981    0.000943
   -5   -6    0    3    1    0.000594   -0.001545
   -5   -6    0    4    1    0.004137   -0.000743
   -5   -6    0    5    1    0.003957    0.002941
   -5   -6    0    6    1   -0.001798   -0.000778
   -5   -6    0    7    1   -0.010907   -0.001787
   -5   -6    0    8    1    0.007308   -0.001224
   -5   -6    0    1    2    0.000879    0.000523
   -5   -6    0    2    2    0.008841   -0.000280
   -5   -6    0    3    2    0.011300    0.000922
   -5   -6    0    4    2    0.006606   -0.000644
   -5   -6    0    5    2   -0.009558   -0.002246
   -5   -6    0    6    2    0.025435   -0.000190
   -5   -6    0    7    2   -0.014227   -0.001137
   -5   -6    0    8    2    0.008703    0.001282
   -5   -6    0    1    3   -0.001895   -0.000270
   -5   -6    0    2    3    0.006781   -0.000761
   -5   -6    0    3    3    0.014501    0.003519
   -5   -6    0    4    3    0.004673   -0.005006
   -5   -6    0    5    3   -0.019400    0.004142
   -5   -6    0    6    3   -0.001805    0.000251
   -5   -6    0    7    3   -0.014257   -0.001325
   -5   -6    0    8    3   -0.004253    0.001525
   -5   -6    0    1    4    0.001243   -0.002225
   -5   -6    0    2    4    0.007182    0.000618
   -5   -6    0    3    4    0.022229   -0.002411
   -5   -6    0    4    4   -0.023770    0.001503
   -5   -6    0    5    4   -0.020712   -0.003087
   -5   -6    0    6    4    0.006117   -0.000631
   -5   -6    0    7    4   -0.020839   -0.003943
   -5   -6    0    8    4   -0.014271   -0.000528
   -5   -6    0    1    5    0.000864   -0.003600
   -5   -6    0    2    5   -0.002381    0.000779
   -5   -6    0    3    5    0.028076   -0.000521
   -5   -6    0    4    5   -0.042983   -0.009858
   -5   -6    0    5    5    0.027005   -0.003756
   -5   -6    0    6    5    0.002268   -0.000675
   -5   -6    0    7    5    0.008636    0.000687
   -5   -6    0    8    5    0.011490   -0.002410
   -5   -6    0    1    6    0.000220   -0.000089
   -5   -6    0    2    6    0.055873   -0.000318
   -5   -6    0    3    6   -0.003322   -0.000065
   -5   -6    0    4    6    0.004277    0.000495
   -5   -6    0    5    6   -0.001307    0.000539
   -5   -6    0    6    6   -0.018688    0.000367
   -5   -6    0    7    6   -0.001068    0.000347
   -5   -6    0    8    6    0.001319    0.000261
   -5   -6    0    1    7   -0.005549   -0.000879
   -5   -6    0    2    7   -0.011566    0.001956
   -5   -6    0    3    7   -0.013428    0.000877
   -5   -6    0    4    7   -0.044647    0.001014
   -5   -6    0    5    7    0.008769    0.001192
   -5   -6    0    6    7   -0.000395   -0.000619
   -5   -6    0    7    7   -0.004264   -0.001014
   -5   -6    0    8    7   -0.003352   -0.000722
   -5   -6    0    1    8   -0.001308    0.000011
   -5   -6    0    2    8    0.000553   -0.000841
   -5   -6    0    3    8   -0.009502   -0.002745
   -5   -6    0    4    8   -0.009923   -0.004368
   -5   -6    0    5    8   -0.007312   -0.001015
   -5   -6    0    6    8    0.002729    0.000229
   -5   -6    0    7    8   -0.002915    0.000051
   -5   -6    0    8    8    0.004047   -0.000080
   -5   -5    0    1    1    0.014817    0.000043
   -5   -5    0    2    1   -0.000092    0.000011
   -5   -5    0    3    1    0.005615    0.000788
   -5   -5    0    4    1   -0.006489   -0.000292
   -5   -5    0    5    1   -0.006016   -0.000612
   -5   -5    0    6    1   -0.000828    0.000428
   -5   -5    0    7    1   -0.005798   -0.001148
   -5   -5    0    8    1   -0.008878    0.002864
   -5   -5    0    1    2    0.000714    0.000475
   -5   -5    0    2    2    0.006862   -0.000428
   -5   -5    0    3    2    0.002026   -0.000760
   -5   -5    0    4    2   -0.017785   -0.000384
   -5   -5    0    5    2    0.002258   -0.001611
   -5   -5    0    6    2    0.019788   -0.000423
   -5   -5    0    7    2   -0.002961    0.000007
   -5   -5    0    8    2    0.004798    0.000087
   -5   -5    0    1    3    0.005637    0.001577
   -5   -5    0    2    3   -0.006773   -0.000164
   -5   -5    0    3    3   -0.031634   -0.006491
   -5   -5    0    4    3    0.021046    0.000871
   -5   -5    0    5    3    0.022440   -0.003394
   -5   -5    0    6    3    0.006604   -0.000892
   -5   -5    0    7    3    0.020161    0.001130
   -5   -5    0    8    3    0.016186   -0.001908
   -5   -5    0    1    4    0.000891    0.002370
   -5   -5    0    2    4   -0.014431    0.001561
   -5   -5    0    3    4   -0.008320    0.003109
   -5   -5    0    4    4    0.007857    0.001353
   -5   -5    0    5    4   -0.013300    0.003311
   -5   -5    0    6    4    0.004107    0.000134
   -5   -5    0    7    4    0.007671   -0.000738
   -5   -5    0    8    4    0.015925    0.003776
   -5   -5    0    1    5    0.000830    0.001918
   -5   -5    0    2    5   -0.002428   -0.000691
   -5   -5    0    3    5    0.001011   -0.002079
   -5   -5    0    4    5    0.006450   -0.002722
   -5   -5    0    5    5    0.017850    0.004660
   -5   -5    0    6    5   -0.000154   -0.000160
   -5   -5    0    7    5   -0.000778   -0.001146
   -5   -5    0    8    5   -0.014307   -0.001146
   -5   -5    0    1    6   -0.000529   -0.000222
   -5   -5    0    2    6    0.017874   -0.000488
   -5   -5    0    3    6    0.006408    0.001912
   -5   -5    0    4    6    0.004193   -0.000871
   -5   -5    0    5    6   -0.001259    0.000860
   -5   -5    0    6    6   -0.010343    0.000405
   -5   -5    0    7    6    0.004929    0.000871
   -5   -5    0    8    6    0.004150    0.000365
   -5   -5    0    1    7    0.011536    0.000790
   -5   -5    0    2    7   -0.005211    0.001073
   -5   -5    0    3    7   -0.002938    0.000351
   -5   -5    0    4    7    0.024727    0.002769
   -5   -5    0    5    7    0.008279    0.000848
   -5   -5    0    6    7    0.000388   -0.000971
   -5   -5    0    7    7    0.002072    0.001838
   -5   -5    0    8    7   -0.000260   -0.000954
   -5   -5    0    1    8    0.007275   -0.003563
   -5   -5    0    2    8   -0.002064   -0.000141
   -5   -5    0    3    8    0.005620    0.002288
   -5   -5    0    4    8    0.011018   -0.005738
   -5   -5    0    5    8    0.002961    0.001597
   -5   -5    0    6    8    0.004507   -0.000386
   -5   -5    0    7    8   -0.007319    0.001046
   -5   -5    0    8    8    0.000111   -0.001379
   -5   -4    0    1    1   -0.007703   -0.000315
   -5   -4    0    2    1   -0.000579    0.000191
   -5   -4    0    3    1   -0.001321    0.002537
   -5   -4    0    4    1    0.002516    0.000055
   -5   -4    0    5    1    0.010070    0.001781
   -5   -4    0    6    1    0.001919   -0.000424
   -5   -4    0    7    1    0.004690    0.001724
   -5   -4    0    8    1    0.006179   -0.000228
   -5   -4    0    1    2   -0.001499   -0.000672
   -5   -4    0    2    2    0.000125   -0.000452
   -5   -4    0    3    2    0.007334    0.000248
   -5   -4    0    4    2    0.005096    0.000071
   -5   -4    0    5    2    0.007549   -0.000750
   -5   -4    0    6    2   -0.010909   -0.000288
   -5   -4    0    7    2    0.017377    0.002875
   -5   -4    0    8    2   -0.010880   -0.002110
   -5   -4    0    1    3   -0.005334   -0.001100
   -5   -4    0    2    3   -0.000699   -0.000173
   -5   -4    0    3    3    0.043146    0.000493
   -5   -4    0    4    3    0.007768   -0.001163
   -5   -4    0    5    3   -0.056808   -0.001659
   -5   -4    0    6    3    0.004439    0.000651
   -5   -4    0    7    3   -0.000884    0.001667
   -5   -4    0    8    3   -0.002863    0.003172
   -5   -4    0    1    4    0.005807   -0.001591
   -5   -4    0    2    4    0.007450    0.001091
   -5   -4    0    3    4    0.000709    0.001802
   -5   -4    0    4    4   -0.034495    0.005195
   -5   -4    0    5    4    0.024583    0.005213
   -5   -4    0    6    4    0.008501   -0.000903
   -5   -4    0    7    4   -0.017542    0.006284
   -5   -4    0    8    4    0.016022    0.001210
   -5   -4    0    1    5    0.001446   -0.000757
   -5   -4    0    2    5   -0.006511   -0.000610
   -5   -4    0    3    5   -0.003271    0.000240
   -5   -4    0    4    5   -0.039895    0.001229
   -5   -4    0    5    5   -0.036015   -0.003578
   -5   -4    0    6    5    0.000599    0.000630
   -5   -4    0    7    5    0.009720    0.002528
   -5   -4    0    8    5    0.010568   -0.000298
   -5   -4    0    1    6   -0.000444    0.000401
   -5   -4    0    2    6   -0.029593   -0.000515
   -5   -4    0    3    6   -0.001536   -0.000090
   -5   -4    0    4    6    0.004883    0.000597
   -5   -4    0    5    6    0.003014    0.000215
   -5   -4    0    6    6    0.007368    0.000261
   -5   -4    0    7    6   -0.005079   -0.000440
   -5   -4    0    8    6    0.000899    0.000488
   -5   -4    0    1    7   -0.007148    0.000723
   -5   -4    0    2    7    0.003007   -0.000261
   -5   -4    0    3    7   -0.014951    0.002795
   -5   -4    0    4    7   -0.031189    0.006194
   -5   -4    0    5    7    0.013632   -0.003778
   -5   -4    0    6    7   -0.007235    0.000360
   -5   -4    0    7    7    0.007866   -0.000891
   -5   -4    0    8    7   -0.002566   -0.000976
   -5   -4    0    1    8   -0.018185    0.003673
   -5   -4    0    2    8   -0.003134    0.000622
   -5   -4    0    3    8   -0.016487   -0.000110
   -5   -4    0    4    8   -0.017632    0.001117
   -5   -4    0    5    8    0.018695   -0.002716
   -5   -4    0    6    8   -0.002052   -0.000491
   -5   -4    0    7    8    0.010056    0.002270
   -5   -4    0    8    8    0.003177   -0.000713
   -5   -3    0    1    1   -0.035192    0.000190
   -5   -3    0    2    1   -0.002689   -0.000173
   -5   -3    0    3    1    0.013037    0.003663
   -5   -3    0    4    1   -0.008548   -0.000525
   -5   -3    0    5    1   -0.000525    0.000202
   -5   -3    0    6    1    0.000557    0.001232
   -5   -3    0    7    1    0.016365    0.000538
   -5   -3    0    8    1    0.001872    0.005063
   -5   -3    0    1    2   -0.000336    0.000529
   -5   -3    0    2    2   -0.007257   -0.000396
   -5   -3    0    3    2   -0.014211   -0.001593
   -5   -3    0    4    2   -0.018389   -0.000101
   -5   -3    0    5    2    0.003936   -0.000019
   -5   -3    0    6    2   -0.054633   -0.000031
   -5   -3    0    7    2    0.035952    0.004357
   -5   -3    0    8    2   -0.013473   -0.002592
   -5   -3    0    1    3   -0.004759    0.002144
   -5   -3    0    2    3   -0.021768    0.001922
   -5   -3    0    3    3   -0.013031    0.005964
   -5   -3    0    4    3    0.007242   -0.002237
   -5   -3    0    5    3    0.004847    0.002717
   -5   -3    0    6    3    0.013178   -0.001514
   -5   -3    0    7    3    0.008156   -0.001488
   -5   -3    0    8    3    0.023694   -0.005641
   -5   -3    0    1    4   -0.000647    0.000494
   -5   -3    0    2    4   -0.023331    0.001106
   -5   -3    0    3    4    0.005999    0.000366
   -5   -3    0    4    4   -0.004337    0.004606
   -5   -3    0    5    4    0.044806   -0.004941
   -5   -3    0    6    4    0.001270    0.000236
   -5   -3    0    7    4    0.065598    0.011810
   -5   -3    0    8    4    0.053724    0.003781
   -5   -3    0    1    5    0.012624    0.001381
   -5   -3    0    2    5   -0.000042   -0.000674
   -5   -3    0    3    5   -0.020034    0.004399
   -5   -3    0    4    5    0.035519    0.001798
   -5   -3    0    5    5   -0.005335   -0.005026
   -5   -3    0    6    5    0.001930    0.000256
   -5   -3    0    7    5   -0.014873    0.002556
   -5   -3    0    8    5    0.011603   -0.002800
   -5   -3    0    1    6   -0.002360    0.000704
   -5   -3    0    2    6   -0.058783   -0.000197
   -5   -3    0    3    6    0.005981    0.000881
   -5   -3    0    4    6    0.002628   -0.000278
   -5   -3    0    5    6    0.000604   -0.000869
   -5   -3    0    6    6    0.026216    0.000329
   -5   -3    0    7    6   -0.000052    0.000300
   -5   -3    0    8    6    0.004273    0.000757
   -5   -3    0    1    7   -0.013080    0.002076
   -5   -3    0    2    7    0.001819   -0.000221
   -5   -3    0    3    7    0.022788   -0.001545
   -5   -3    0    4    7    0.034767    0.000003
   -5   -3    0    5    7   -0.015099    0.000334
   -5   -3    0    6    7    0.000050    0.000891
   -5   -3    0    7    7    0.000469   -0.004105
   -5   -3    0    8    7    0.005799   -0.001541
   -5   -3    0    1    8   -0.010911    0.001544
   -5   -3    0    2    8    0.001689    0.000598
   -5   -3    0    3    8    0.017032    0.002447
   -5   -3    0    4    8    0.012194   -0.002647
   -5   -3    0    5    8    0.014882   -0.004050
   -5   -3    0    6    8   -0.002046   -0.000193
   -5   -3    0    7    8    0.006297    0.001641
   -5   -3    0    8    8    0.000702   -0.001563
   -5   -2    0    1    1   -0.034586    0.000355
   -5   -2    0    2    1   -0.004395   -0.000148
   -5   -2    0    3    1   -0.003188    0.001093
   -5   -2    0    4    1    0.002704    0.001664
   -5   -2    0    5    1   -0.000650   -0.000327
   -5   -2    0    6    1    0.000402    0.000659
   -5   -2    0    7    1    0.023145    0.003192
   -5   -2    0    8    1    0.013958    0.002190
   -5   -2    0    1    2    0.001208   -0.000399
   -5   -2    0    2    2   -0.006909   -0.000464
   -5   -2    0    3    2   -0.004425    0.000172
   -5   -2    0    4    2    0.010295   -0.000409
   -5   -2    0    5    2   -0.015569   -0.000063
   -5   -2    0    6    2   -0.070026    0.000194
   -5   -2    0    7    2    0.041646    0.005304
   -5   -2    0    8    2   -0.005297   -0.000673
   -5   -2    0    1    3   -0.007579    0.004718
   -5   -2    0    2    3   -0.002216   -0.000116
   -5   -2    0    3    3    0.009720    0.010290
   -5   -2    0    4    3    0.004901   -0.005167
   -5   -2    0    5    3   -0.008184    0.004970
   -5   -2    0    6    3    0.002751   -0.000789
   -5   -2    0    7    3   -0.022728   -0.001005
   -5   -2    0    8    3   -0.012260    0.003020
   -5   -2    0    1    4    0.000990   -0.000328
   -5   -2    0    2    4    0.005357    0.000619
   -5   -2    0    3    4    0.010785   -0.002321
   -5   -2    0    4    4   -0.024714    0.005267
   -5   -2    0    5    4    0.021513   -0.007854
   -5   -2    0    6    4    0.002042   -0.001238
   -5   -2    0    7    4   -0.003389    0.002970
   -5   -2    0    8    4    0.034902   -0.005157
   -5   -2    0    1    5   -0.007435   -0.002347
   -5   -2    0    2    5    0.005216   -0.000088
   -5   -2    0    3    5    0.014521    0.001853
   -5   -2    0    4    5   -0.037157   -0.002602
   -5   -2    0    5    5   -0.005314   -0.007401
   -5   -2    0    6    5   -0.001696    0.000141
   -5   -2    0    7    5    0.028511    0.001359
   -5   -2    0    8    5    0.008049   -0.001369
   -5   -2    0    1    6   -0.001344    0.000319
   -5   -2    0    2    6   -0.034239   -0.000218
   -5   -2    0    3    6    0.004932    0.000040
   -5   -2    0    4    6    0.007032    0.000319
   -5   -2    0    5    6    0.002854    0.000006
   -5   -2    0    6    6    0.025927    0.000466
   -5   -2    0    7    6   -0.004827   -0.000437
   -5   -2    0    8    6    0.000588    0.000089
   -5   -2    0    1    7   -0.013435    0.001227
   -5   -2    0    2    7   -0.001503    0.000393
   -5   -2    0    3    7   -0.001630   -0.001615
   -5   -2    0    4    7   -0.030949    0.003043
   -5   -2    0    5    7   -0.008947    0.005264
   -5   -2    0    6    7   -0.003012    0.000825
   -5   -2    0    7    7   -0.002679   -0.006892
   -5   -2    0    8    7    0.002973    0.000197
   -5   -2    0    1    8    0.006018    0.002746
   -5   -2    0    2    8   -0.005095    0.001020
   -5   -2    0    3    8   -0.006414   -0.002878
   -5   -2    0    4    8   -0.016982    0.002046
   -5   -2    0    5    8    0.011773    0.001152
   -5   -2    0    6    8   -0.005182    0.000067
   -5   -2    0    7    8    0.003343   -0.002188
   -5   -2    0    8    8    0.000785   -0.001622
   -5   -1    0    1    1   -0.007057   -0.000235
   -5   -1    0    2    1    0.000320    0.000336
   -5   -1    0    3    1    0.003776   -0.000876
   -5   -1    0    4    1   -0.004798    0.000303
   -5   -1    0    5    1   -0.003148   -0.001380
   -5   -1    0    6    1   -0.000227    0.001674
   -5   -1    0    7    1    0.004539    0.003335
   -5   -1    0    8    1    0.019001    0.003390
   -5   -1    0    1    2    0.003210    0.000533
   -5   -1    0    2    2   -0.005640   -0.000705
   -5   -1    0    3    2   -0.014517   -0.001415
   -5   -1    0    4    2   -0.015632   -0.000767
   -5   -1    0    5    2   -0.018150    0.000571
   -5   -1    0    6    2   -0.056280   -0.000133
   -5   -1    0    7    2    0.030723    0.003292
   -5   -1    0    8    2    0.011498    0.001721
   -5   -1    0    1    3   -0.004576    0.001520
   -5   -1    0    2    3   -0.014769    0.000896
   -5   -1    0    3    3   -0.056990   -0.007663
   -5   -1    0    4    3    0.003106    0.003661
   -5   -1    0    5    3    0.036912   -0.003401
   -5   -1    0    6    3    0.011184   -0.001934
   -5   -1    0    7    3    0.004176    0.006038
   -5   -1    0    8    3    0.019062   -0.002195
   -5   -1    0    1    4    0.006345   -0.000996
   -5   -1    0    2    4   -0.025113    0.000796
   -5   -1    0    3    4    0.012830    0.005496
   -5   -1    0    4    4    0.007419   -0.003953
   -5   -1    0    5    4    0.001071   -0.002301
   -5   -1    0    6    4   -0.000131    0.000490
   -5   -1    0    7    4    0.066837    0.002773
   -5   -1    0    8    4    0.056740    0.000616
   -5   -1    0    1    5    0.000275    0.000508
   -5   -1    0    2    5    0.006186    0.000469
   -5   -1    0    3    5    0.031879    0.001642
   -5   -1    0    4    5   -0.013274    0.001029
   -5   -1    0    5    5    0.046800    0.009657
   -5   -1    0    6    5    0.001742   -0.000041
   -5   -1    0    7    5   -0.003390   -0.006630
   -5   -1    0    8    5   -0.010408   -0.001211
   -5   -1    0    1    6   -0.000723    0.000551
   -5   -1    0    2    6    0.010313   -0.000391
   -5   -1    0    3    6    0.007619    0.001846
   -5   -1    0    4    6    0.000404   -0.000689
   -5   -1    0    5    6    0.001445    0.000367
   -5   -1    0    6    6    0.011135    0.000697
   -5   -1    0    7    6    0.001603   -0.000026
   -5   -1    0    8    6    0.003967    0.000055
   -5   -1    0    1    7    0.003618    0.000794
   -5   -1    0    2    7   -0.005427    0.001422
   -5   -1    0    3    7    0.000973   -0.003640
   -5   -1    0    4    7    0.033748    0.003011
   -5   -1    0    5    7    0.000804    0.003691
   -5   -1    0    6    7    0.006257   -0.000713
   -5   -1    0    7    7   -0.019647    0.002105
   -5   -1    0    8    7    0.001113    0.001978
   -5   -1    0    1    8   -0.000155    0.000220
   -5   -1    0    2    8   -0.010008    0.001232
   -5   -1    0    3    8    0.014845    0.002225
   -5   -1    0    4    8    0.021182   -0.001515
   -5   -1    0    5    8   -0.035338    0.003689
   -5   -1    0    6    8    0.001172    0.000240
   -5   -1    0    7    8   -0.005581   -0.001781
   -5   -1    0    8    8    0.007466    0.000097
   -5    0    0    1    1    0.014851    0.000351
   -5    0    0    2    1   -0.000090    0.000249
   -5    0    0    3    1   -0.002444    0.002305
   -5    0    0    4    1    0.006161   -0.001273
   -5    0    0    5    1    0.008366    0.000455
   -5    0    0    6    1   -0.000746    0.001004
   -5    0    0    7    1    0.001776   -0.000821
   -5    0    0    8    1    0.009274   -0.001159
   -5    0    0    1    2    0.001320   -0.000047
   -5    0    0    2    2    0.004358   -0.000689
   -5    0    0    3    2    0.005751   -0.000120
   -5    0    0    4    2    0.009226    0.000228
   -5    0    0    5    2   -0.019279   -0.000985
   -5    0    0    6    2   -0.015694   -0.000366
   -5    0    0    7    2    0.010029    0.001513
   -5    0    0    8    2    0.013107    0.002277
   -5    0    0    1    3    0.002350   -0.000134
   -5    0    0    2    3    0.010542   -0.001277
   -5    0    0    3    3    0.056950   -0.009924
   -5    0    0    4    3    0.009278    0.002356
   -5    0    0    5    3    0.009836   -0.009027
   -5    0    0    6    3   -0.000121   -0.000212
   -5    0    0    7    3    0.001531    0.005540
   -5    0    0    8    3   -0.014298    0.002709
   -5    0    0    1    4   -0.001047    0.000746
   -5    0    0    2    4    0.009590   -0.000105
   -5    0    0    3    4   -0.006652    0.005104
   -5    0    0    4    4   -0.023446   -0.001855
   -5    0    0    5    4   -0.004107    0.009998
   -5    0    0    6    4    0.004647   -0.000466
   -5    0    0    7    4   -0.040809   -0.002181
   -5    0    0    8    4    0.014172   -0.002658
   -5    0    0    1    5    0.005083    0.000713
   -5    0    0    2    5    0.002041    0.000086
   -5    0    0    3    5   -0.034770   -0.006928
   -5    0    0    4    5    0.015320    0.008110
   -5    0    0    5    5   -0.042701    0.002637
   -5    0    0    6    5   -0.000829    0.000236
   -5    0    0    7    5   -0.018440   -0.002419
   -5    0    0    8    5   -0.000666    0.000806
   -5    0    0    1    6   -0.003699   -0.000509
   -5    0    0    2    6    0.048282   -0.000477
   -5    0    0    3    6    0.002658    0.000499
   -5    0    0    4    6    0.007984    0.000528
   -5    0    0    5    6    0.000501   -0.000723
   -5    0    0    6    6   -0.008315    0.000596
   -5    0    0    7    6   -0.002682   -0.000244
   -5    0    0    8    6   -0.000400   -0.000292
   -5    0    0    1    7   -0.002171    0.003826
   -5    0    0    2    7   -0.006877    0.001621
   -5    0    0    3    7   -0.032066    0.003047
   -5    0    0    4    7   -0.001666   -0.001838
   -5    0    0    5    7    0.030457   -0.005624
   -5    0    0    6    7   -0.000066   -0.001021
   -5    0    0    7    7   -0.001874    0.007554
   -5    0    0    8    7    0.002132    0.000516
   -5    0    0    1    8    0.000098    0.005052
   -5    0    0    2    8   -0.025232    0.002454
   -5    0    0    3    8   -0.012145   -0.000852
   -5    0    0    4    8    0.018546    0.000925
   -5    0    0    5    8    0.017116    0.000490
   -5    0    0    6    8    0.002755    0.000153
   -5    0    0    7    8    0.006404    0.000628
   -5    0    0    8    8    0.007780    0.001331
   -5    1    0    1    1   -0.013597   -0.000214
   -5    1    0    2    1   -0.000390   -0.000494
   -5    1    0    3    1    0.004053    0.000529
   -5    1    0    4    1   -0.002585   -0.000227
   -5    1    0    5    1   -0.005076    0.001427
   -5    1    0    6    1   -0.002514   -0.000097
   -5    1    0    7    1   -0.007273    0.001202
   -5    1    0    8    1    0.001545    0.001341
   -5    1    0    1    2    0.000827    0.000137
   -5    1    0    2    2    0.004935   -0.000378
   -5    1    0    3    2   -0.002092   -0.001311
   -5    1    0    4    2   -0.014461    0.000093
   -5    1    0    5    2   -0.004768   -0.001011
   -5    1    0    6    2    0.013713   -0.000335
   -5    1    0    7    2    0.002498    0.000927
   -5    1    0    8    2    0.008868    0.001516
   -5    1    0    1    3    0.001647    0.001493
   -5    1    0    2    3   -0.001551    0.000266
   -5    1    0    3    3    0.014586   -0.002796
   -5    1    0    4    3   -0.010039   -0.000670
   -5    1    0    5    3   -0.023855   -0.002142
   -5    1    0    6    3    0.006911   -0.001110
   -5    1    0    7    3    0.022767   -0.000326
   -5    1    0    8    3    0.019046   -0.004404
   -5    1    0    1    4   -0.000310    0.000197
   -5    1    0    2    4   -0.012127   -0.000024
   -5    1    0    3    4   -0.012851    0.003136
   -5    1    0    4    4    0.028093   -0.002360
   -5    1    0    5    4    0.074410   -0.002749
   -5    1    0    6    4    0.005175    0.000564
   -5    1    0    7    4    0.042828    0.006877
   -5    1    0    8    4    0.049724    0.005619
   -5    1    0    1    5    0.006056    0.003708
   -5    1    0    2    5    0.002644   -0.000002
   -5    1    0    3    5   -0.006651    0.003101
   -5    1    0    4    5    0.034757   -0.000556
   -5    1    0    5    5   -0.030770    0.003242
   -5    1    0    6    5    0.000903    0.000269
   -5    1    0    7    5    0.004786    0.002156
   -5    1    0    8    5    0.017240    0.001866
   -5    1    0    1    6   -0.003536    0.000278
   -5    1    0    2    6    0.043342   -0.000216
   -5    1    0    3    6    0.004184    0.001318
   -5    1    0    4    6    0.002894   -0.000585
   -5    1    0    5    6   -0.000066   -0.000291
   -5    1    0    6    6   -0.015201    0.000335
   -5    1    0    7    6    0.002034    0.000341
   -5    1    0    8    6    0.003763    0.000046
   -5    1    0    1    7   -0.004115   -0.002117
   -5    1    0    2    7   -0.001344    0.001079
   -5    1    0    3    7    0.032561    0.000591
   -5    1    0    4    7    0.029911   -0.004373
   -5    1    0    5    7   -0.001721   -0.005635
   -5    1    0    6    7    0.004578   -0.000974
   -5    1    0    7    7    0.007104    0.001708
   -5    1    0    8    7    0.001215   -0.002209
   -5    1    0    1    8   -0.004228    0.000913
   -5    1    0    2    8   -0.023566    0.002278
   -5    1    0    3    8    0.016172    0.001880
   -5    1    0    4    8    0.038752   -0.002098
   -5    1    0    5    8    0.010556    0.000211
   -5    1    0    6    8    0.005781   -0.000441
   -5    1    0    7    8   -0.003007    0.001376
   -5    1    0    8    8    0.000042    0.000463
   -4   -7    0    1    1   -0.023902   -0.000180
   -4   -7    0    2    1    0.001950   -0.001186
   -4   -7    0    3    1   -0.007385    0.001289
   -4   -7    0    4    1   -0.003619   -0.000910
   -4   -7    0    5    1   -0.005638    0.001013
   -4   -7    0    6    1    0.000234   -0.000206
   -4   -7    0    7    1   -0.003305    0.001726
   -4   -7    0    8    1    0.034698    0.007174
   -4   -7    0    1    2    0.004553   -0.000420
   -4   -7    0    2    2    0.001212   -0.000123
   -4   -7    0    3    2   -0.003161   -0.001018
   -4   -7    0    4    2    0.010010    0.001164
   -4   -7    0    5    2   -0.009472   -0.001877
   -4   -7    0    6    2   -0.001055    0.000080
   -4   -7    0    7    2    0.003057    0.000279
   -4   -7    0    8    2    0.002249    0.000653
   -4   -7    0    1    3   -0.001765    0.000163
   -4   -7    0    2    3    0.001334   -0.000312
   -4   -7    0    3    3    0.009143    0.001549
   -4   -7    0    4    3    0.021908   -0.001676
   -4   -7    0    5    3    0.012869   -0.003144
   -4   -7    0    6    3    0.007986   -0.001338
   -4   -7    0    7    3    0.008352    0.002132
   -4   -7    0    8    3    0.006032   -0.001553
   -4   -7    0    1    4    0.003793    0.004490
   -4   -7    0    2    4    0.009991    0.000065
   -4   -7    0    3    4    0.012518    0.000587
   -4   -7    0    4    4    0.014792    0.000321
   -4   -7    0    5    4   -0.021282   -0.001396
   -4   -7    0    6    4    0.002005    0.000076
   -4   -7    0    7    4   -0.017579   -0.000461
   -4   -7    0    8    4   -0.020349   -0.003050
   -4   -7    0    1    5   -0.002181    0.006216
   -4   -7    0    2    5   -0.001765    0.000109
   -4   -7    0    3    5    0.002767    0.003340
   -4   -7    0    4    5   -0.035043   -0.002046
   -4   -7    0    5    5   -0.025138    0.000052
   -4   -7    0    6    5   -0.001289    0.000210
   -4   -7    0    7    5    0.008780    0.000944
   -4   -7    0    8    5    0.001015   -0.000082
   -4   -7    0    1    6   -0.002807   -0.000041
   -4   -7    0    2    6    0.024253   -0.000075
   -4   -7    0    3    6    0.005201    0.001024
   -4   -7    0    4    6   -0.000817   -0.000352
   -4   -7    0    5    6   -0.000038    0.000091
   -4   -7    0    6    6   -0.000076    0.000041
   -4   -7    0    7    6    0.001420    0.000505
   -4   -7    0    8    6   -0.000343   -0.000181
   -4   -7    0    1    7    0.010940    0.001103
   -4   -7    0    2    7   -0.017439    0.002098
   -4   -7    0    3    7    0.012058   -0.003786
   -4   -7    0    4    7   -0.029155    0.004853
   -4   -7    0    5    7    0.001961   -0.000054
   -4   -7    0    6    7    0.003562   -0.000646
   -4   -7    0    7    7    0.006013   -0.001192
   -4   -7    0    8    7    0.004944    0.000227
   -4   -7    0    1    8   -0.009926    0.002059
   -4   -7    0    2    8    0.006061   -0.001152
   -4   -7    0    3    8    0.003747    0.001436
   -4   -7    0    4    8   -0.037726    0.002983
   -4   -7    0    5    8   -0.003487   -0.000478
   -4   -7    0    6    8   -0.001086   -0.000128
   -4   -7    0    7    8   -0.000920   -0.001419
   -4   -7    0    8    8   -0.001022   -0.000466
   -4   -6    0    1    1    0.022324   -0.000352
   -4   -6    0    2    1   -0.002104    0.001083
   -4   -6    0    3    1    0.004772   -0.000077
   -4   -6    0    4    1   -0.004024   -0.000145
   -4   -6    0    5    1    0.004110    0.005224
   -4   -6    0    6    1   -0.001174    0.000557
   -4   -6    0    7    1   -0.014731   -0.000584
   -4   -6    0    8    1   -0.007968   -0.003071
   -4   -6    0    1    2    0.000818    0.000231
   -4   -6    0    2    2    0.001883   -0.000355
   -4   -6    0    3    2    0.004423    0.000302
   -4   -6    0    4    2    0.000789    0.000401
   -4   -6    0    5    2   -0.006677   -0.002324
   -4   -6    0    6    2   -0.010622   -0.000046
   -4   -6    0    7    2    0.001785    0.000656
   -4   -6    0    8    2    0.014341    0.001690
   -4   -6    0    1    3    0.000780    0.002717
   -4   -6    0    2    3   -0.003434   -0.000455
   -4   -6    0    3    3    0.012087    0.001643
   -4   -6    0    4    3   -0.035884    0.002649
   -4   -6    0    5    3    0.007497    0.002595
   -4   -6    0    6    3   -0.005168    0.000691
   -4   -6    0    7    3   -0.013660    0.000565
   -4   -6    0    8    3   -0.012592    0.002609
   -4   -6    0    1    4    0.000093   -0.005498
   -4   -6    0    2    4   -0.002111    0.000210
   -4   -6    0    3    4   -0.041144   -0.004778
   -4   -6    0    4    4   -0.003154    0.003878
   -4   -6    0    5    4    0.007980    0.002290
   -4   -6    0    6    4   -0.013506    0.000547
   -4   -6    0    7    4    0.009660   -0.000475
   -4   -6    0    8    4    0.005633    0.002038
   -4   -6    0    1    5   -0.006944    0.000267
   -4   -6    0    2    5   -0.000886   -0.000993
   -4   -6    0    3    5    0.010177   -0.003049
   -4   -6    0    4    5   -0.010870    0.003102
   -4   -6    0    5    5   -0.003280   -0.005478
   -4   -6    0    6    5   -0.000090    0.000008
   -4   -6    0    7    5    0.005303   -0.001855
   -4   -6    0    8    5   -0.015884   -0.000759
   -4   -6    0    1    6   -0.002400   -0.000378
   -4   -6    0    2    6    0.017261   -0.000481
   -4   -6    0    3    6   -0.005773    0.000004
   -4   -6    0    4    6   -0.016724   -0.000597
   -4   -6    0    5    6    0.001605    0.000371
   -4   -6    0    6    6   -0.002040    0.000293
   -4   -6    0    7    6    0.001830    0.000156
   -4   -6    0    8    6   -0.000042   -0.000272
   -4   -6    0    1    7   -0.004307   -0.001367
   -4   -6    0    2    7    0.001684   -0.000065
   -4   -6    0    3    7   -0.029135    0.002201
   -4   -6    0    4    7    0.013753    0.008297
   -4   -6    0    5    7   -0.001736    0.001201
   -4   -6    0    6    7   -0.002514    0.000315
   -4   -6    0    7    7   -0.008445    0.001083
   -4   -6    0    8    7   -0.002785    0.000860
   -4   -6    0    1    8    0.001896    0.003861
   -4   -6    0    2    8   -0.001081   -0.000215
   -4   -6    0    3    8   -0.016593   -0.001206
   -4   -6    0    4    8   -0.020585    0.001285
   -4   -6    0    5    8   -0.002630    0.000259
   -4   -6    0    6    8    0.000319    0.000059
   -4   -6    0    7    8   -0.005066   -0.000435
   -4   -6    0    8    8   -0.001154   -0.000713
   -4   -5    0    1    1   -0.008150    0.000110
   -4   -5    0    2    1   -0.001183   -0.000463
   -4   -5    0    3    1   -0.006184    0.002212
   -4   -5    0    4    1    0.001404    0.001042
   -4   -5    0    5    1   -0.004073   -0.001606
   -4   -5    0    6    1   -0.000575    0.000256
   -4   -5    0    7    1    0.014281    0.000646
   -4   -5    0    8    1    0.006048    0.004041
   -4   -5    0    1    2   -0.001403   -0.000512
   -4   -5    0    2    2   -0.000175   -0.000449
   -4   -5    0    3    2    0.005129   -0.000405
   -4   -5    0    4    2    0.010270    0.000993
   -4   -5    0    5    2    0.004734   -0.000605
   -4   -5    0    6    2   -0.029463   -0.000346
   -4   -5    0    7    2   -0.003195    0.000555
   -4   -5    0    8    2    0.001079   -0.000602
   -4   -5    0    1    3   -0.005534    0.002355
   -4   -5    0    2    3   -0.006352    0.000307
   -4   -5    0    3    3   -0.024408   -0.000287
   -4   -5    0    4    3    0.028474   -0.002153
   -4   -5    0    5    3    0.007810   -0.000731
   -4   -5    0    6    3    0.011041   -0.001094
   -4   -5    0    7    3    0.006857   -0.000280
   -4   -5    0    8    3    0.001275   -0.002590
   -4   -5    0    1    4    0.001563    0.003571
   -4   -5    0    2    4    0.011698   -0.000637
   -4   -5    0    3    4    0.023999    0.002055
   -4   -5    0    4    4    0.013407    0.004251
   -4   -5    0    5    4   -0.004643   -0.001329
   -4   -5    0    6    4    0.001293    0.000185
   -4   -5    0    7    4   -0.017008    0.002886
   -4   -5    0    8    4   -0.019369   -0.003812
   -4   -5    0    1    5    0.006455    0.002475
   -4   -5    0    2    5   -0.000118   -0.001215
   -4   -5    0    3    5   -0.035892   -0.000695
   -4   -5    0    4    5    0.013056    0.001682
   -4   -5    0    5    5   -0.011495   -0.003435
   -4   -5    0    6    5   -0.003437    0.000757
   -4   -5    0    7    5   -0.013493   -0.000222
   -4   -5    0    8    5   -0.010107   -0.001207
   -4   -5    0    1    6   -0.000701    0.000228
   -4   -5    0    2    6   -0.013142   -0.000671
   -4   -5    0    3    6    0.008951    0.001337
   -4   -5    0    4    6    0.003254   -0.000023
   -4   -5    0    5    6   -0.001517   -0.000066
   -4   -5    0    6    6    0.007597    0.000447
   -4   -5    0    7    6    0.001878   -0.000376
   -4   -5    0    8    6   -0.001144    0.000267
   -4   -5    0    1    7   -0.002640    0.002114
   -4   -5    0    2    7    0.015626   -0.001486
   -4   -5    0    3    7    0.030085    0.000060
   -4   -5    0    4    7    0.008085   -0.002495
   -4   -5    0    5    7    0.007383   -0.001949
   -4   -5    0    6    7   -0.001987    0.000933
   -4   -5    0    7    7    0.009617   -0.000380
   -4   -5    0    8    7   -0.003530    0.000976
   -4   -5    0    1    8   -0.003586   -0.000117
   -4   -5    0    2    8   -0.011143    0.000922
   -4   -5    0    3    8    0.014724    0.000102
   -4   -5    0    4    8   -0.004055    0.006579
   -4   -5    0    5    8    0.007731   -0.003457
   -4   -5    0    6    8   -0.002040    0.000452
   -4   -5    0    7    8    0.010131    0.000038
   -4   -5    0    8    8   -0.002922   -0.000257
   -4   -4    0    1    1   -0.011677    0.000283
   -4   -4    0    2    1   -0.002297   -0.000007
   -4   -4    0    3    1    0.003889   -0.002246
   -4   -4    0    4    1    0.001225    0.000596
   -4   -4    0    5    1    0.009057   -0.000916
   -4   -4    0    6    1   -0.002712   -0.000427
   -4   -4    0    7    1   -0.003959    0.000556
   -4   -4    0    8    1    0.003354   -0.002147
   -4   -4    0    1    2   -0.004267   -0.000937
   -4   -4    0    2    2   -0.019983   -0.000315
   -4   -4    0    3    2   -0.000130   -0.000099
   -4   -4    0    4    2   -0.006465    0.000311
   -4   -4    0    5    2    0.011443    0.001612
   -4   -4    0    6    2   -0.053834   -0.000418
   -4   -4    0    7    2    0.017375    0.002714
   -4   -4    0    8    2   -0.018812   -0.004177
   -4   -4    0    1    3   -0.000876   -0.000331
   -4   -4    0    2    3   -0.010834    0.000936
   -4   -4    0    3    3    0.038512   -0.000416
   -4   -4    0    4    3   -0.066697    0.002051
   -4   -4    0    5    3   -0.042321    0.003539
   -4   -4    0    6    3   -0.000652    0.000023
   -4   -4    0    7    3    0.007673   -0.002578
   -4   -4    0    8    3    0.008820    0.000323
   -4   -4    0    1    4   -0.006301   -0.003670
   -4   -4    0    2    4   -0.010475   -0.000212
   -4   -4    0    3    4   -0.031512   -0.008180
   -4   -4    0    4    4    0.015745    0.003862
   -4   -4    0    5    4    0.030098   -0.013236
   -4   -4    0    6    4   -0.019332    0.001065
   -4   -4    0    7    4    0.023510   -0.000300
   -4   -4    0    8    4   -0.011589   -0.001944
   -4   -4    0    1    5    0.003689   -0.001298
   -4   -4    0    2    5    0.002269   -0.001500
   -4   -4    0    3    5    0.003474   -0.001996
   -4   -4    0    4    5    0.052660   -0.002469
   -4   -4    0    5    5    0.045784    0.001138
   -4   -4    0    6    5   -0.001508    0.000559
   -4   -4    0    7    5   -0.010046   -0.002889
   -4   -4    0    8    5   -0.001279   -0.003918
   -4   -4    0    1    6    0.001179   -0.000904
   -4   -4    0    2    6   -0.053655   -0.000545
   -4   -4    0    3    6   -0.008967   -0.000984
   -4   -4    0    4    6   -0.015267   -0.000120
   -4   -4    0    5    6   -0.004570   -0.000386
   -4   -4    0    6    6    0.022205    0.000479
   -4   -4    0    7    6   -0.004660   -0.000814
   -4   -4    0    8    6    0.001060    0.000886
   -4   -4    0    1    7   -0.003796   -0.002171
   -4   -4    0    2    7    0.036025   -0.003907
   -4   -4    0    3    7   -0.019967   -0.001172
   -4   -4    0    4    7    0.025153   -0.005975
   -4   -4    0    5    7   -0.014550    0.003190
   -4   -4    0    6    7   -0.005602    0.001135
   -4   -4    0    7    7   -0.027362   -0.004014
   -4   -4    0    8    7   -0.008871   -0.000659
   -4   -4    0    1    8    0.011533    0.002363
   -4   -4    0    2    8    0.003763   -0.000184
   -4   -4    0    3    8   -0.008673   -0.000956
   -4   -4    0    4    8    0.028946   -0.002028
   -4   -4    0    5    8   -0.010579   -0.002850
   -4   -4    0    6    8   -0.003624    0.001123
   -4   -4    0    7    8   -0.011792   -0.001641
   -4   -4    0    8    8   -0.014722   -0.001016
   -4   -3    0    1    1    0.035507   -0.000294
   -4   -3    0    2    1    0.000473    0.000724
   -4   -3    0    3    1   -0.011938   -0.002354
   -4   -3    0    4    1   -0.001143   -0.000104
   -4   -3    0    5    1   -0.008898   -0.002246
   -4   -3    0    6    1   -0.002408    0.001294
   -4   -3    0    7    1    0.004785    0.000849
   -4   -3    0    8    1   -0.011286   -0.000194
   -4   -3    0    1    2   -0.000899    0.000365
   -4   -3    0    2    2   -0.032955   -0.000016
   -4   -3    0    3    2   -0.014078   -0.001245
   -4   -3    0    4    2    0.006878    0.000592
   -4   -3    0    5    2    0.009049    0.002880
   -4   -3    0    6    2   -0.073339   -0.000161
   -4   -3    0    7    2    0.036817    0.004576
   -4   -3    0    8    2   -0.036819   -0.005725
   -4   -3    0    1    3    0.006750   -0.000383
   -4   -3    0    2    3   -0.016735    0.002405
   -4   -3    0    3    3   -0.029167    0.002383
   -4   -3    0    4    3    0.040736   -0.005892
   -4   -3    0    5    3    0.013212   -0.004637
   -4   -3    0    6    3    0.014565   -0.002820
   -4   -3    0    7    3    0.010708    0.003581
   -4   -3    0    8    3    0.010904   -0.001864
   -4   -3    0    1    4   -0.007138    0.004325
   -4   -3    0    2    4    0.003420   -0.000795
   -4   -3    0    3    4    0.037089   -0.003329
   -4   -3    0    4    4    0.044630   -0.000650
   -4   -3    0    5    4   -0.057686   -0.010433
   -4   -3    0    6    4   -0.000076    0.000182
   -4   -3    0    7    4   -0.037469   -0.012846
   -4   -3    0    8    4   -0.054414   -0.011151
   -4   -3    0    1    5    0.000475    0.001589
   -4   -3    0    2    5    0.002784   -0.001049
   -4   -3    0    3    5    0.019748    0.004575
   -4   -3    0    4    5    0.000939   -0.005388
   -4   -3    0    5    5   -0.013664    0.001158
   -4   -3    0    6    5   -0.000572   -0.000031
   -4   -3    0    7    5    0.004791   -0.000053
   -4   -3    0    8    5    0.000945    0.000690
   -4   -3    0    1    6    0.001923   -0.001153
   -4   -3    0    2    6   -0.086459    0.000071
   -4   -3    0    3    6    0.015948    0.002142
   -4   -3    0    4    6    0.007225   -0.000719
   -4   -3    0    5    6   -0.007211   -0.000142
   -4   -3    0    6    6    0.042931    0.000353
   -4   -3    0    7    6   -0.000872    0.000132
[...]
    6    5    0    2    7   -0.014657    0.000912
    6    5    0    3    7   -0.006582    0.000202
    6    5    0    4    7    0.000261    0.002411
    6    5    0    5    7   -0.002462    0.002969
    6    5    0    6    7    0.001854   -0.000046
    6    5    0    7    7    0.002823   -0.000453
    6    5    0    8    7   -0.001312    0.001225
    6    5    0    1    8    0.003002   -0.000225
    6    5    0    2    8    0.007274   -0.001331
    6    5    0    3    8   -0.000529    0.003501
    6    5    0    4    8   -0.029632    0.005444
    6    5    0    5    8   -0.008110    0.001384
    6    5    0    6    8   -0.001996    0.000099
    6    5    0    7    8   -0.004151   -0.000717
    6    5    0    8    8   -0.005290   -0.000373
    6    6    0    1    1    0.010893   -0.000000
    6    6    0    2    1    0.001407    0.000202
    6    6    0    3    1   -0.002540   -0.000046
    6    6    0    4    1    0.003320    0.001962
    6    6    0    5    1    0.001318    0.001108
    6    6    0    6    1   -0.001053    0.000148
    6    6    0    7    1    0.007815    0.002268
    6    6    0    8    1   -0.003607   -0.002775
    6    6    0    1    2    0.001407   -0.000202
    6    6    0    2    2    0.008515    0.000000
    6    6    0    3    2    0.011357    0.000843
    6    6    0    4    2    0.001095    0.000017
    6    6    0    5    2   -0.004440   -0.001979
    6    6    0    6    2    0.060192    0.000121
    6    6    0    7    2   -0.015794   -0.001893
    6    6    0    8    2    0.010025    0.002179
    6    6    0    1    3   -0.002540    0.000046
    6    6    0    2    3    0.011357   -0.000843
    6    6    0    3    3    0.017225   -0.000000
    6    6    0    4    3   -0.043010    0.004268
    6    6    0    5    3   -0.017214    0.002510
    6    6    0    6    3   -0.005747    0.000886
    6    6    0    7    3    0.004516   -0.001502
    6    6    0    8    3   -0.007626    0.004082
    6    6    0    1    4    0.003320   -0.001962
    6    6    0    2    4    0.001095   -0.000017
    6    6    0    3    4   -0.043010   -0.004268
    6    6    0    4    4    0.006771   -0.000000
    6    6    0    5    4    0.024291   -0.000218
    6    6    0    6    4   -0.014341    0.000883
    6    6    0    7    4    0.017427    0.002582
    6    6    0    8    4    0.009069   -0.000001
    6    6    0    1    5    0.001318   -0.001108
    6    6    0    2    5   -0.004440    0.001979
    6    6    0    3    5   -0.017214   -0.002510
    6    6    0    4    5    0.024291    0.000218
    6    6    0    5    5   -0.065343    0.000000
    6    6    0    6    5    0.000152    0.000500
    6    6    0    7    5    0.000116    0.001593
    6    6    0    8    5    0.004219    0.001299
    6    6    0    1    6   -0.001053   -0.000148
    6    6    0    2    6    0.060192   -0.000121
    6    6    0    3    6   -0.005747   -0.000886
    6    6    0    4    6   -0.014341   -0.000883
    6    6    0    5    6    0.000152   -0.000500
    6    6    0    6    6   -0.030143   -0.000000
    6    6    0    7    6    0.000296   -0.000530
    6    6    0    8    6   -0.001568   -0.000561
    6    6    0    1    7    0.007815   -0.002268
    6    6    0    2    7   -0.015794    0.001893
    6    6    0    3    7    0.004516    0.001502
    6    6    0    4    7    0.017427   -0.002582
    6    6    0    5    7    0.000116   -0.001593
    6    6    0    6    7    0.000296    0.000530
    6    6    0    7    7    0.004833    0.000000
    6    6    0    8    7   -0.002939    0.001011
    6    6    0    1    8   -0.003607    0.002775
    6    6    0    2    8    0.010025   -0.002179
    6    6    0    3    8   -0.007626   -0.004082
    6    6    0    4    8    0.009069    0.000001
    6    6    0    5    8    0.004219   -0.001299
    6    6    0    6    8   -0.001568    0.000561
    6    6    0    7    8   -0.002939   -0.001011
    6    6    0    8    8   -0.006851    0.000000
    7    2    0    1    1    0.009044    0.000274
    7    2    0    2    1   -0.001968    0.001076
    7    2    0    3    1   -0.007868   -0.001061
    7    2    0    4    1    0.007866    0.000416
    7    2    0    5    1    0.009542   -0.000129
    7    2    0    6    1   -0.001268    0.000330
    7    2    0    7    1   -0.004387   -0.003459
    7    2    0    8    1   -0.009340   -0.003959
    7    2    0    1    2    0.000153    0.000408
    7    2    0    2    2    0.004682   -0.000013
    7    2    0    3    2    0.009297    0.000267
    7    2    0    4    2    0.008118    0.000412
    7    2    0    5    2   -0.000040   -0.001120
    7    2    0    6    2    0.021984   -0.000051
    7    2    0    7    2    0.000475    0.000274
    7    2    0    8    2   -0.009671   -0.001197
    7    2    0    1    3   -0.000795    0.000465
    7    2    0    2    3    0.008681   -0.000577
    7    2    0    3    3    0.005007    0.003318
    7    2    0    4    3    0.016254   -0.005106
    7    2    0    5    3   -0.018845    0.004769
    7    2    0    6    3   -0.000170    0.000199
    7    2    0    7    3   -0.014479   -0.003764
    7    2    0    8    3   -0.012119    0.000397
    7    2    0    1    4   -0.001085   -0.002379
    7    2    0    2    4    0.012911   -0.000450
    7    2    0    3    4    0.027151   -0.000127
    7    2    0    4    4   -0.032504    0.001229
    7    2    0    5    4   -0.023219   -0.003414
    7    2    0    6    4    0.007651   -0.000757
    7    2    0    7    4   -0.017518   -0.000663
    7    2    0    8    4   -0.007571   -0.000707
    7    2    0    1    5   -0.010432   -0.002808
    7    2    0    2    5   -0.001651   -0.000299
    7    2    0    3    5    0.008998   -0.001692
    7    2    0    4    5   -0.008269   -0.002173
    7    2    0    5    5    0.032046   -0.002771
    7    2    0    6    5    0.001386   -0.000658
    7    2    0    7    5    0.014802    0.000540
    7    2    0    8    5   -0.002649    0.000560
    7    2    0    1    6    0.000458   -0.000828
    7    2    0    2    6    0.019742    0.000018
    7    2    0    3    6   -0.000441   -0.000017
    7    2    0    4    6    0.005817    0.000833
    7    2    0    5    6   -0.001955    0.000194
    7    2    0    6    6   -0.008800    0.000021
    7    2    0    7    6   -0.000728   -0.000209
    7    2    0    8    6    0.001010   -0.000256
    7    2    0    1    7    0.003170   -0.001407
    7    2    0    2    7   -0.005967    0.000485
    7    2    0    3    7   -0.015599    0.001930
    7    2    0    4    7   -0.015169   -0.000779
    7    2    0    5    7   -0.013867   -0.000449
    7    2    0    6    7   -0.001430    0.000123
    7    2    0    7    7    0.000340   -0.002022
    7    2    0    8    7    0.002057   -0.001565
    7    2    0    1    8    0.012222    0.000134
    7    2    0    2    8   -0.014986    0.001891
    7    2    0    3    8   -0.008532   -0.000828
    7    2    0    4    8    0.016747    0.001529
    7    2    0    5    8    0.009232   -0.000176
    7    2    0    6    8    0.002963    0.000029
    7    2    0    7    8   -0.001462    0.000902
    7    2    0    8    8    0.010345   -0.000036
    7    3    0    1    1   -0.022267    0.000028
    7    3    0    2    1    0.002533   -0.000540
    7    3    0    3    1   -0.007091   -0.003505
    7    3    0    4    1    0.002177    0.000469
    7    3    0    5    1   -0.017549   -0.003061
    7    3    0    6    1   -0.001641    0.000027
    7    3    0    7    1    0.011874    0.003812
    7    3    0    8    1    0.003231    0.002025
    7    3    0    1    2    0.000337    0.000013
    7    3    0    2    2   -0.000298    0.000142
    7    3    0    3    2   -0.005795   -0.001035
    7    3    0    4    2   -0.013717   -0.000091
    7    3    0    5    2    0.003145   -0.000430
    7    3    0    6    2    0.006532    0.000148
    7    3    0    7    2    0.002761   -0.000360
    7    3    0    8    2   -0.016207   -0.002380
    7    3    0    1    3   -0.004808   -0.001012
    7    3    0    2    3    0.001585   -0.000053
    7    3    0    3    3   -0.029465   -0.002185
    7    3    0    4    3    0.002277   -0.002170
    7    3    0    5    3    0.008224    0.000025
    7    3    0    6    3    0.006901   -0.001363
    7    3    0    7    3    0.012279   -0.000470
    7    3    0    8    3    0.008763   -0.002510
    7    3    0    1    4    0.004000    0.001814
    7    3    0    2    4   -0.009804    0.000547
    7    3    0    3    4   -0.008495    0.002687
    7    3    0    4    4    0.016854   -0.000894
    7    3    0    5    4    0.004845   -0.000461
    7    3    0    6    4    0.000359    0.000671
    7    3    0    7    4    0.027571   -0.000956
    7    3    0    8    4    0.026774    0.002521
    7    3    0    1    5   -0.012146    0.002395
    7    3    0    2    5   -0.002241    0.000299
    7    3    0    3    5    0.023762    0.000606
    7    3    0    4    5    0.021156    0.002463
    7    3    0    5    5    0.007488    0.003851
    7    3    0    6    5    0.001415   -0.000191
    7    3    0    7    5    0.000566   -0.000960
    7    3    0    8    5   -0.000369   -0.000360
    7    3    0    1    6   -0.000763   -0.000718
    7    3    0    2    6    0.005324    0.000086
    7    3    0    3    6    0.006634    0.001621
    7    3    0    4    6    0.003867   -0.000274
    7    3    0    5    6   -0.002277   -0.000071
    7    3    0    6    6    0.000638   -0.000078
    7    3    0    7    6    0.002896    0.000393
    7    3    0    8    6    0.003473    0.000360
    7    3    0    1    7    0.017767   -0.001047
    7    3    0    2    7   -0.010137    0.000828
    7    3    0    3    7    0.016331   -0.001950
    7    3    0    4    7    0.039648   -0.003284
    7    3    0    5    7   -0.011414    0.000547
    7    3    0    6    7    0.003615   -0.000378
    7    3    0    7    7    0.003722   -0.001292
    7    3    0    8    7   -0.000180   -0.000665
    7    3    0    1    8    0.014322   -0.004307
    7    3    0    2    8    0.000196    0.000091
    7    3    0    3    8    0.007385    0.002228
    7    3    0    4    8    0.042289   -0.001267
    7    3    0    5    8   -0.009130   -0.000272
    7    3    0    6    8    0.002991    0.000052
    7    3    0    7    8    0.000604    0.000840
    7    3    0    8    8    0.004344    0.000429
    7    4    0    1    1   -0.025547   -0.000441
    7    4    0    2    1    0.000349    0.001168
    7    4    0    3    1   -0.002738   -0.002867
    7    4    0    4    1    0.000701   -0.000061
    7    4    0    5    1    0.007575    0.002313
    7    4    0    6    1   -0.002095   -0.000875
    7    4    0    7    1   -0.045764   -0.007809
    7    4    0    8    1   -0.006644   -0.006841
    7    4    0    1    2    0.001035    0.000976
    7    4    0    2    2    0.000793    0.000097
    7    4    0    3    2    0.003109    0.000309
    7    4    0    4    2    0.009761    0.000051
    7    4    0    5    2   -0.008657   -0.001145
    7    4    0    6    2   -0.000892    0.000273
    7    4    0    7    2   -0.003071   -0.000827
    7    4    0    8    2   -0.014515   -0.001695
    7    4    0    1    3    0.009248   -0.003641
    7    4    0    2    3    0.010248   -0.000960
    7    4    0    3    3    0.029448    0.000948
    7    4    0    4    3   -0.001496   -0.002835
    7    4    0    5    3   -0.003035    0.001030
    7    4    0    6    3   -0.001039   -0.000262
    7    4    0    7    3   -0.009978   -0.000646
    7    4    0    8    3   -0.017641    0.002939
    7    4    0    1    4   -0.002375   -0.002687
    7    4    0    2    4    0.009213    0.000054
    7    4    0    3    4    0.009700    0.001481
    7    4    0    4    4   -0.019468   -0.000788
    7    4    0    5    4   -0.015783    0.001249
    7    4    0    6    4    0.005417   -0.000627
    7    4    0    7    4   -0.020992   -0.001215
    7    4    0    8    4   -0.011031   -0.001069
    7    4    0    1    5    0.000468   -0.000840
    7    4    0    2    5   -0.003564    0.001278
    7    4    0    3    5    0.003257   -0.000174
    7    4    0    4    5   -0.002370    0.002999
    7    4    0    5    5   -0.016916   -0.000583
    7    4    0    6    5    0.000908    0.000255
    7    4    0    7    5   -0.007934    0.001638
    7    4    0    8    5   -0.001337    0.002283
    7    4    0    1    6   -0.000936   -0.001134
    7    4    0    2    6    0.024285   -0.000020
    7    4    0    3    6    0.000913   -0.000153
    7    4    0    4    6    0.004610    0.000885
    7    4    0    5    6   -0.000746   -0.000418
    7    4    0    6    6   -0.000779   -0.000048
    7    4    0    7    6   -0.000500   -0.000297
    7    4    0    8    6    0.000481    0.000023
    7    4    0    1    7    0.015301   -0.001897
    7    4    0    2    7   -0.016594    0.001554
    7    4    0    3    7   -0.024590    0.001791
    7    4    0    4    7   -0.002765   -0.003135
    7    4    0    5    7    0.000867    0.000041
    7    4    0    6    7    0.000073   -0.000273
    7    4    0    7    7    0.004359    0.000515
    7    4    0    8    7    0.002800   -0.000191
    7    4    0    1    8   -0.004062   -0.000795
    7    4    0    2    8    0.007349   -0.001013
    7    4    0    3    8   -0.012314    0.000437
    7    4    0    4    8    0.017956   -0.000196
    7    4    0    5    8    0.001122   -0.000457
    7    4    0    6    8    0.000206    0.000248
    7    4    0    7    8    0.006367    0.000842
    7    4    0    8    8    0.009133    0.000298
    7    5    0    1    1    0.009829    0.000306
    7    5    0    2    1    0.001346   -0.000756
    7    5    0    3    1   -0.002345    0.001483
    7    5    0    4    1    0.006547    0.000040
    7    5    0    5    1   -0.009314   -0.002136
    7    5    0    6    1   -0.002069   -0.000487
    7    5    0    7    1    0.027220    0.001573
    7    5    0    8    1   -0.023330    0.000331
    7    5    0    1    2    0.003725    0.000493
    7    5    0    2    2    0.004764   -0.000054
    7    5    0    3    2   -0.003150   -0.000692
    7    5    0    4    2   -0.012696   -0.000871
    7    5    0    5    2   -0.010941   -0.001982
    7    5    0    6    2    0.007026    0.000087
    7    5    0    7    2   -0.011588   -0.001662
    7    5    0    8    2    0.002035    0.000538
    7    5    0    1    3   -0.000513   -0.000276
    7    5    0    2    3    0.001388   -0.000054
    7    5    0    3    3    0.000033    0.004506
    7    5    0    4    3   -0.007143   -0.002721
    7    5    0    5    3    0.024221   -0.002924
    7    5    0    6    3    0.006106   -0.001392
    7    5    0    7    3    0.008820    0.000211
    7    5    0    8    3    0.011958   -0.002735
    7    5    0    1    4   -0.001677    0.003203
    7    5    0    2    4   -0.011818    0.000811
    7    5    0    3    4   -0.009098   -0.000342
    7    5    0    4    4    0.024573   -0.001876
    7    5    0    5    4    0.007179   -0.001646
    7    5    0    6    4    0.000070    0.000592
    7    5    0    7    4    0.025157   -0.000204
    7    5    0    8    4    0.014064    0.001989
    7    5    0    1    5   -0.000929    0.001292
    7    5    0    2    5    0.000443    0.001404
    7    5    0    3    5   -0.028038    0.004100
    7    5    0    4    5    0.041245   -0.003826
    7    5    0    5    5   -0.012504   -0.002849
    7    5    0    6    5    0.001581   -0.000245
    7    5    0    7    5   -0.011828    0.003147
    7    5    0    8    5    0.000029    0.000312
    7    5    0    1    6   -0.000906   -0.000335
    7    5    0    2    6    0.050547   -0.000095
    7    5    0    3    6    0.007017    0.000519
    7    5    0    4    6    0.006642   -0.000490
    7    5    0    5    6    0.000341   -0.000223
    7    5    0    6    6   -0.010137    0.000152
    7    5    0    7    6    0.002207    0.000142
    7    5    0    8    6    0.001545    0.000232
    7    5    0    1    7   -0.006449   -0.000525
    7    5    0    2    7   -0.018530    0.002622
    7    5    0    3    7    0.029634   -0.002077
    7    5    0    4    7    0.036565   -0.010883
    7    5    0    5    7    0.013446    0.001025
    7    5    0    6    7    0.005939   -0.000797
    7    5    0    7    7    0.004509   -0.000291
    7    5    0    8    7    0.000414   -0.000671
    7    5    0    1    8    0.004948   -0.002971
    7    5    0    2    8    0.005504   -0.001545
    7    5    0    3    8    0.020484    0.000299
    7    5    0    4    8    0.042805   -0.007147
    7    5    0    5    8   -0.001038   -0.001465
    7    5    0    6    8    0.002818    0.000098
    7    5    0    7    8    0.000761    0.000403
    7    5    0    8    8   -0.000909    0.000106
    8    4    0    1    1    0.058163    0.000662
    8    4    0    2    1   -0.001519    0.000552
    8    4    0    3    1    0.007798    0.003785
    8    4    0    4    1    0.005314   -0.000942
    8    4    0    5    1    0.012651   -0.002894
    8    4    0    6    1   -0.000846    0.001767
    8    4    0    7    1    0.037432    0.002973
    8    4    0    8    1   -0.015653   -0.000704
    8    4    0    1    2    0.005742    0.000541
    8    4    0    2    2   -0.004220    0.000028
    8    4    0    3    2   -0.003036   -0.000314
    8    4    0    4    2    0.000296    0.000710
    8    4    0    5    2   -0.003440   -0.000846
    8    4    0    6    2   -0.000669    0.000048
    8    4    0    7    2    0.010771    0.000697
    8    4    0    8    2   -0.006307   -0.000809
    8    4    0    1    3   -0.008125    0.002006
    8    4    0    2    3    0.005843   -0.000535
    8    4    0    3    3    0.020981   -0.001432
    8    4    0    4    3   -0.041618    0.006222
    8    4    0    5    3   -0.013959    0.001070
    8    4    0    6    3   -0.003972    0.000620
    8    4    0    7    3   -0.002000   -0.000788
    8    4    0    8    3   -0.003420    0.003387
    8    4    0    1    4   -0.003541   -0.001160
    8    4    0    2    4   -0.004413    0.000017
    8    4    0    3    4   -0.037684   -0.004103
    8    4    0    4    4    0.003735   -0.000194
    8    4    0    5    4    0.022773   -0.000069
    8    4    0    6    4   -0.014696    0.000566
    8    4    0    7    4    0.010186    0.001568
    8    4    0    8    4    0.006721    0.000986
    8    4    0    1    5    0.007740   -0.004539
    8    4    0    2    5    0.000968    0.000654
    8    4    0    3    5   -0.012991   -0.000453
    8    4    0    4    5    0.009882   -0.002602
    8    4    0    5    5   -0.011600    0.001726
    8    4    0    6    5   -0.000261    0.000145
    8    4    0    7    5   -0.000231    0.001073
    8    4    0    8    5    0.005541    0.000103
    8    4    0    1    6   -0.001239    0.000350
    8    4    0    2    6    0.018572    0.000040
    8    4    0    3    6   -0.003770   -0.000504
    8    4    0    4    6   -0.013319   -0.000902
    8    4    0    5    6   -0.001579   -0.000182
    8    4    0    6    6   -0.000349    0.000005
    8    4    0    7    6   -0.000520    0.000141
    8    4    0    8    6    0.000810    0.000056
    8    4    0    1    7   -0.029894    0.003748
    8    4    0    2    7   -0.012906    0.001559
    8    4    0    3    7   -0.012717    0.002293
    8    4    0    4    7   -0.008250    0.001742
    8    4    0    5    7   -0.001099    0.000254
    8    4    0    6    7    0.000545   -0.000210
    8    4    0    7    7   -0.010286   -0.000756
    8    4    0    8    7   -0.007845    0.000894
    8    4    0    1    8    0.012417    0.002570
    8    4    0    2    8    0.010235   -0.001307
    8    4    0    3    8   -0.005937   -0.000924
    8    4    0    4    8   -0.026789   -0.001747
    8    4    0    5    8   -0.007538    0.000337
    8    4    0    6    8   -0.001930    0.000088
    8    4    0    7    8   -0.004127   -0.000608
    8    4    0    8    8   -0.011393   -0.000039
