   2   2   1   0
  0.2621357E+02  0.2460440E-09  0.2460440E-09  0.1000000E-08  0.5000000E-15
  1.000000000000000E-004
  CAR 
                                         
     33.89597190    -23.39965695 2001     -1.22137187      1.00000000
    -23.400  0.0000E+00  0.0000E+00
    -23.371  0.0000E+00  0.0000E+00
    -23.342  0.0000E+00  0.0000E+00
    -23.314  0.0000E+00  0.0000E+00
    -23.285  0.0000E+00  0.0000E+00
    -23.256  0.0000E+00  0.0000E+00
    -23.228  0.0000E+00  0.0000E+00
    -23.199  0.0000E+00  0.0000E+00
    -23.170  0.0000E+00  0.0000E+00
    -23.142  0.0000E+00  0.0000E+00
    -23.113  0.0000E+00  0.0000E+00
    -23.085  0.0000E+00  0.0000E+00
    -23.056  0.0000E+00  0.0000E+00
    -23.027  0.0000E+00  0.0000E+00
    -22.999  0.0000E+00  0.0000E+00
    -22.970  0.0000E+00  0.0000E+00
    -22.941  0.0000E+00  0.0000E+00
    -22.913  0.0000E+00  0.0000E+00
    -22.884  0.0000E+00  0.0000E+00
    -22.855  0.0000E+00  0.0000E+00
    -22.827  0.0000E+00  0.0000E+00
    -22.798  0.0000E+00  0.0000E+00
    -22.769  0.0000E+00  0.0000E+00
    -22.741  0.0000E+00  0.0000E+00
    -22.712  0.0000E+00  0.0000E+00
    -22.683  0.0000E+00  0.0000E+00
    -22.655  0.0000E+00  0.0000E+00
    -22.626  0.0000E+00  0.0000E+00
    -22.598  0.0000E+00  0.0000E+00
    -22.569  0.0000E+00  0.0000E+00
    -22.540  0.0000E+00  0.0000E+00
    -22.512  0.0000E+00  0.0000E+00
    -22.483  0.0000E+00  0.0000E+00
    -22.454  0.0000E+00  0.0000E+00
    -22.426  0.0000E+00  0.0000E+00
    -22.397  0.0000E+00  0.0000E+00
    -22.368  0.0000E+00  0.0000E+00
    -22.340  0.0000E+00  0.0000E+00
    -22.311  0.0000E+00  0.0000E+00
    -22.282  0.0000E+00  0.0000E+00
    -22.254  0.0000E+00  0.0000E+00
    -22.225  0.0000E+00  0.0000E+00
    -22.196  0.0000E+00  0.0000E+00
    -22.168  0.0000E+00  0.0000E+00
    -22.139  0.0000E+00  0.0000E+00
    -22.111  0.0000E+00  0.0000E+00
    -22.082  0.0000E+00  0.0000E+00
    -22.053  0.0000E+00  0.0000E+00
    -22.025  0.0000E+00  0.0000E+00
    -21.996  0.0000E+00  0.0000E+00
    -21.967  0.0000E+00  0.0000E+00
    -21.939  0.0000E+00  0.0000E+00
    -21.910  0.0000E+00  0.0000E+00
    -21.881  0.0000E+00  0.0000E+00
    -21.853  0.0000E+00  0.0000E+00
    -21.824  0.0000E+00  0.0000E+00
    -21.795  0.0000E+00  0.0000E+00
    -21.767  0.0000E+00  0.0000E+00
    -21.738  0.0000E+00  0.0000E+00
    -21.709  0.0000E+00  0.0000E+00
    -21.681  0.0000E+00  0.0000E+00
    -21.652  0.0000E+00  0.0000E+00
    -21.623  0.0000E+00  0.0000E+00
    -21.595  0.0000E+00  0.0000E+00
    -21.566  0.0000E+00  0.0000E+00
    -21.538  0.0000E+00  0.0000E+00
    -21.509  0.0000E+00  0.0000E+00
    -21.480  0.0000E+00  0.0000E+00
    -21.452  0.0000E+00  0.0000E+00
    -21.423  0.0000E+00  0.0000E+00
    -21.394  0.0000E+00  0.0000E+00
    -21.366  0.0000E+00  0.0000E+00
    -21.337  0.0000E+00  0.0000E+00
    -21.308  0.0000E+00  0.0000E+00
    -21.280  0.0000E+00  0.0000E+00
    -21.251  0.0000E+00  0.0000E+00
    -21.222  0.0000E+00  0.0000E+00
    -21.194  0.0000E+00  0.0000E+00
    -21.165  0.0000E+00  0.0000E+00
    -21.136  0.0000E+00  0.0000E+00
    -21.108  0.0000E+00  0.0000E+00
    -21.079  0.6890E-15  0.1974E-16
    -21.051  0.3813E-12  0.1094E-13
    -21.022  0.1112E-09  0.3195E-11
    -20.993  0.1711E-07  0.4934E-09
    -20.965  0.1396E-05  0.4050E-07
    -20.936  0.6072E-04  0.1780E-05
    -20.907  0.1416E-02  0.4234E-04
    -20.879  0.1785E-01  0.5538E-03
    -20.850  0.1232E+00  0.4083E-02
    -20.821  0.4741E+00  0.1766E-01
    -20.793  0.1050E+01  0.4774E-01
    -20.764  0.1423E+01  0.8850E-01
    -20.735  0.1333E+01  0.1267E+00
    -20.707  0.1051E+01  0.1568E+00
    -20.678  0.8397E+00  0.1809E+00
    -20.649  0.7183E+00  0.2014E+00
    -20.621  0.6420E+00  0.2198E+00
    -20.592  0.5874E+00  0.2366E+00
    -20.564  0.5453E+00  0.2523E+00
    -20.535  0.5114E+00  0.2669E+00
    -20.506  0.4832E+00  0.2808E+00
    -20.478  0.4594E+00  0.2939E+00
    -20.449  0.4388E+00  0.3065E+00
    -20.420  0.4209E+00  0.3186E+00
    -20.392  0.4049E+00  0.3302E+00
    -20.363  0.3907E+00  0.3413E+00
    -20.334  0.3783E+00  0.3522E+00
    -20.306  0.3657E+00  0.3627E+00
    -20.277  0.3569E+00  0.3729E+00
    -20.248  0.3450E+00  0.3828E+00
    -20.220  0.3377E+00  0.3924E+00
    -20.191  0.3298E+00  0.4019E+00
    -20.162  0.3191E+00  0.4110E+00
    -20.134  0.3165E+00  0.4201E+00
    -20.105  0.3072E+00  0.4289E+00
    -20.077  0.2977E+00  0.4374E+00
    -20.048  0.3013E+00  0.4461E+00
    -20.019  0.2861E+00  0.4543E+00
    -19.991  0.2810E+00  0.4623E+00
    -19.962  0.2895E+00  0.4706E+00
    -19.933  0.2669E+00  0.4782E+00
    -19.905  0.2674E+00  0.4859E+00
    -19.876  0.2789E+00  0.4939E+00
    -19.847  0.2525E+00  0.5011E+00
    -19.819  0.2535E+00  0.5084E+00
    -19.790  0.2682E+00  0.5161E+00
    -19.761  0.2455E+00  0.5231E+00
    -19.733  0.2387E+00  0.5299E+00
    -19.704  0.2535E+00  0.5372E+00
    -19.675  0.2451E+00  0.5442E+00
    -19.647  0.2300E+00  0.5508E+00
    -19.618  0.2316E+00  0.5575E+00
    -19.589  0.2416E+00  0.5644E+00
    -19.561  0.2356E+00  0.5711E+00
    -19.532  0.2127E+00  0.5772E+00
    -19.504  0.2194E+00  0.5835E+00
    -19.475  0.2452E+00  0.5905E+00
    -19.446  0.2202E+00  0.5968E+00
    -19.418  0.1875E+00  0.6022E+00
    -19.389  0.2244E+00  0.6086E+00
    -19.360  0.2478E+00  0.6157E+00
    -19.332  0.1925E+00  0.6213E+00
    -19.303  0.1746E+00  0.6263E+00
    -19.274  0.2349E+00  0.6330E+00
    -19.246  0.2383E+00  0.6398E+00
    -19.217  0.1712E+00  0.6447E+00
    -19.188  0.1724E+00  0.6497E+00
    -19.160  0.2340E+00  0.6564E+00
    -19.131  0.2253E+00  0.6628E+00
    -19.102  0.1659E+00  0.6676E+00
    -19.074  0.1712E+00  0.6725E+00
    -19.045  0.2182E+00  0.6787E+00
    -19.017  0.2144E+00  0.6849E+00
    -18.988  0.1755E+00  0.6899E+00
    -18.959  0.1712E+00  0.6948E+00
    -18.931  0.1915E+00  0.7003E+00
    -18.902  0.1993E+00  0.7060E+00
    -18.873  0.1930E+00  0.7115E+00
    -18.845  0.1812E+00  0.7167E+00
    -18.816  0.1654E+00  0.7214E+00
    -18.787  0.1700E+00  0.7263E+00
    -18.759  0.2025E+00  0.7321E+00
    -18.730  0.2065E+00  0.7380E+00
    -18.701  0.1596E+00  0.7426E+00
    -18.673  0.1316E+00  0.7464E+00
    -18.644  0.1813E+00  0.7516E+00
    -18.615  0.2319E+00  0.7582E+00
    -18.587  0.1885E+00  0.7636E+00
    -18.558  0.1138E+00  0.7669E+00
    -18.530  0.1292E+00  0.7706E+00
    -18.501  0.2180E+00  0.7768E+00
    -18.472  0.2342E+00  0.7835E+00
    -18.444  0.1458E+00  0.7877E+00
    -18.415  0.9246E-01  0.7904E+00
    -18.386  0.1529E+00  0.7947E+00
    -18.358  0.2356E+00  0.8015E+00
    -18.329  0.2096E+00  0.8075E+00
    -18.300  0.1187E+00  0.8109E+00
    -18.272  0.1004E+00  0.8138E+00
    -18.243  0.1698E+00  0.8186E+00
    -18.214  0.2222E+00  0.8250E+00
    -18.186  0.1850E+00  0.8303E+00
    -18.157  0.1202E+00  0.8337E+00
    -18.128  0.1201E+00  0.8372E+00
    -18.100  0.1659E+00  0.8419E+00
    -18.071  0.1891E+00  0.8473E+00
    -18.043  0.1718E+00  0.8523E+00
    -18.014  0.1427E+00  0.8564E+00
    -17.985  0.1417E+00  0.8604E+00
    -17.957  0.1482E+00  0.8647E+00
    -17.928  0.1472E+00  0.8689E+00
    -17.899  0.1616E+00  0.8735E+00
    -17.871  0.1744E+00  0.8785E+00
    -17.842  0.1669E+00  0.8833E+00
    -17.813  0.1326E+00  0.8871E+00
    -17.785  0.1051E+00  0.8901E+00
    -17.756  0.1395E+00  0.8941E+00
    -17.727  0.1987E+00  0.8998E+00
    -17.699  0.1999E+00  0.9055E+00
    -17.670  0.1334E+00  0.9093E+00
    -17.641  0.7501E-01  0.9115E+00
    -17.613  0.1014E+00  0.9144E+00
    -17.584  0.1946E+00  0.9200E+00
    -17.556  0.2337E+00  0.9267E+00
    -17.527  0.1595E+00  0.9312E+00
    -17.498  0.6966E-01  0.9332E+00
    -17.470  0.6450E-01  0.9351E+00
    -17.441  0.1536E+00  0.9395E+00
    -17.412  0.2399E+00  0.9463E+00
    -17.384  0.2037E+00  0.9522E+00
    -17.355  0.9726E-01  0.9550E+00
    -17.326  0.5160E-01  0.9564E+00
    -17.298  0.1030E+00  0.9594E+00
    -17.269  0.1975E+00  0.9651E+00
    -17.240  0.2252E+00  0.9715E+00
    -17.212  0.1517E+00  0.9758E+00
    -17.183  0.7518E-01  0.9780E+00
    -17.154  0.7882E-01  0.9803E+00
    -17.126  0.1413E+00  0.9843E+00
    -17.097  0.1889E+00  0.9897E+00
    -17.068  0.1811E+00  0.9949E+00
    -17.040  0.1299E+00  0.9986E+00
    -17.011  0.9601E-01  0.1001E+01
    -16.983  0.1175E+00  0.1005E+01
    -16.954  0.1423E+00  0.1009E+01
    -16.925  0.1436E+00  0.1013E+01
    -16.897  0.1484E+00  0.1017E+01
    -16.868  0.1442E+00  0.1021E+01
    -16.839  0.1389E+00  0.1025E+01
    -16.811  0.1381E+00  0.1029E+01
    -16.782  0.1104E+00  0.1032E+01
    -16.753  0.9535E-01  0.1035E+01
    -16.725  0.1347E+00  0.1039E+01
    -16.696  0.1800E+00  0.1044E+01
    -16.667  0.1819E+00  0.1049E+01
    -16.639  0.1342E+00  0.1053E+01
    -16.610  0.7138E-01  0.1055E+01
    -16.581  0.6160E-01  0.1057E+01
    -16.553  0.1320E+00  0.1061E+01
    -16.524  0.2167E+00  0.1067E+01
    -16.496  0.2105E+00  0.1073E+01
    -16.467  0.1194E+00  0.1076E+01
    -16.438  0.4522E-01  0.1078E+01
    -16.410  0.4786E-01  0.1079E+01
    -16.381  0.1336E+00  0.1083E+01
    -16.352  0.2322E+00  0.1090E+01
    -16.324  0.2181E+00  0.1096E+01
    -16.295  0.1114E+00  0.1099E+01
    -16.266  0.4150E-01  0.1100E+01
    -16.238  0.5711E-01  0.1102E+01
    -16.209  0.1368E+00  0.1106E+01
    -16.180  0.2107E+00  0.1112E+01
    -16.152  0.1999E+00  0.1118E+01
    -16.123  0.1208E+00  0.1121E+01
    -16.094  0.6884E-01  0.1123E+01
    -16.066  0.9117E-01  0.1126E+01
    -16.037  0.1369E+00  0.1130E+01
    -16.009  0.1523E+00  0.1134E+01
    -15.980  0.1546E+00  0.1138E+01
    -15.951  0.1487E+00  0.1143E+01
    -15.923  0.1387E+00  0.1147E+01
    -15.894  0.1391E+00  0.1151E+01
    -15.865  0.1139E+00  0.1154E+01
    -15.837  0.8052E-01  0.1156E+01
    -15.808  0.1147E+00  0.1159E+01
    -15.779  0.2013E+00  0.1165E+01
    -15.751  0.2259E+00  0.1172E+01
    -15.722  0.1508E+00  0.1176E+01
    -15.693  0.7812E-01  0.1178E+01
    -15.665  0.8941E-01  0.1181E+01
    -15.636  0.1588E+00  0.1185E+01
    -15.607  0.2358E+00  0.1192E+01
    -15.579  0.3737E+00  0.1203E+01
    -15.550  0.7198E+00  0.1223E+01
    -15.522  0.1242E+01  0.1259E+01
    -15.493  0.1539E+01  0.1303E+01
    -15.464  0.1395E+01  0.1343E+01
    -15.436  0.1114E+01  0.1375E+01
    -15.407  0.9467E+00  0.1402E+01
    -15.378  0.8427E+00  0.1426E+01
    -15.350  0.7228E+00  0.1447E+01
    -15.321  0.6170E+00  0.1465E+01
    -15.292  0.5547E+00  0.1480E+01
    -15.264  0.5293E+00  0.1496E+01
    -15.235  0.5417E+00  0.1511E+01
    -15.206  0.5712E+00  0.1528E+01
    -15.178  0.5552E+00  0.1543E+01
    -15.149  0.4866E+00  0.1557E+01
    -15.120  0.4258E+00  0.1570E+01
    -15.092  0.3987E+00  0.1581E+01
    -15.063  0.4018E+00  0.1593E+01
    -15.034  0.4380E+00  0.1605E+01
    -15.006  0.4745E+00  0.1619E+01
    -14.977  0.4523E+00  0.1632E+01
    -14.949  0.3884E+00  0.1643E+01
    -14.920  0.3432E+00  0.1653E+01
    -14.891  0.3307E+00  0.1662E+01
    -14.863  0.3495E+00  0.1672E+01
    -14.834  0.3968E+00  0.1683E+01
    -14.805  0.4234E+00  0.1696E+01
    -14.777  0.3853E+00  0.1707E+01
    -14.748  0.3256E+00  0.1716E+01
    -14.719  0.2944E+00  0.1724E+01
    -14.691  0.2960E+00  0.1733E+01
    -14.662  0.3314E+00  0.1742E+01
    -14.633  0.3806E+00  0.1753E+01
    -14.605  0.3837E+00  0.1764E+01
    -14.576  0.3549E+00  0.1774E+01
    -14.547  0.4550E+00  0.1787E+01
    -14.519  0.8861E+00  0.1813E+01
    -14.490  0.1559E+01  0.1857E+01
    -14.462  0.1956E+01  0.1914E+01
    -14.433  0.1816E+01  0.1966E+01
    -14.404  0.1464E+01  0.2007E+01
    -14.376  0.1224E+01  0.2043E+01
    -14.347  0.1090E+01  0.2074E+01
    -14.318  0.9921E+00  0.2102E+01
    -14.290  0.9622E+00  0.2130E+01
    -14.261  0.9851E+00  0.2158E+01
    -14.232  0.9654E+00  0.2186E+01
    -14.204  0.8712E+00  0.2211E+01
    -14.175  0.7753E+00  0.2233E+01
    -14.146  0.7567E+00  0.2254E+01
    -14.118  0.8181E+00  0.2278E+01
    -14.089  0.8738E+00  0.2303E+01
    -14.060  0.8352E+00  0.2327E+01
    -14.032  0.7388E+00  0.2348E+01
    -14.003  0.6919E+00  0.2368E+01
    -13.975  0.7243E+00  0.2389E+01
    -13.946  0.7758E+00  0.2411E+01
    -13.917  0.7994E+00  0.2434E+01
    -13.889  0.8229E+00  0.2457E+01
    -13.860  0.9032E+00  0.2483E+01
    -13.831  0.9911E+00  0.2512E+01
    -13.803  0.9444E+00  0.2539E+01
    -13.774  0.8450E+00  0.2563E+01
    -13.745  0.8794E+00  0.2588E+01
    -13.717  0.9950E+00  0.2617E+01
    -13.688  0.1063E+01  0.2647E+01
    -13.659  0.1149E+01  0.2680E+01
    -13.631  0.1266E+01  0.2716E+01
    -13.602  0.1157E+01  0.2749E+01
    -13.573  0.7479E+00  0.2771E+01
    -13.545  0.3743E+00  0.2781E+01
    -13.516  0.2188E+00  0.2788E+01
    -13.488  0.1778E+00  0.2793E+01
    -13.459  0.1423E+00  0.2797E+01
    -13.430  0.8700E-01  0.2799E+01
    -13.402  0.7410E-01  0.2802E+01
    -13.373  0.1509E+00  0.2806E+01
    -13.344  0.2376E+00  0.2813E+01
    -13.316  0.2090E+00  0.2819E+01
    -13.287  0.1103E+00  0.2822E+01
    -13.258  0.7431E-01  0.2824E+01
    -13.230  0.1115E+00  0.2827E+01
    -13.201  0.1422E+00  0.2831E+01
    -13.172  0.1470E+00  0.2835E+01
    -13.144  0.1627E+00  0.2840E+01
    -13.115  0.1772E+00  0.2845E+01
    -13.086  0.1680E+00  0.2850E+01
    -13.058  0.1227E+00  0.2853E+01
    -13.029  0.6489E-01  0.2855E+01
    -13.001  0.6329E-01  0.2857E+01
    -12.972  0.1484E+00  0.2861E+01
    -12.943  0.2377E+00  0.2868E+01
    -12.915  0.2083E+00  0.2874E+01
    -12.886  0.1038E+00  0.2877E+01
    -12.857  0.5535E-01  0.2879E+01
    -12.829  0.8880E-01  0.2881E+01
    -12.800  0.1383E+00  0.2885E+01
    -12.771  0.1548E+00  0.2890E+01
    -12.743  0.1574E+00  0.2894E+01
    -12.714  0.1515E+00  0.2899E+01
    -12.685  0.1435E+00  0.2903E+01
    -12.657  0.1396E+00  0.2907E+01
    -12.628  0.1032E+00  0.2910E+01
    -12.599  0.5787E-01  0.2911E+01
    -12.571  0.7704E-01  0.2913E+01
    -12.542  0.1711E+00  0.2918E+01
    -12.513  0.2381E+00  0.2925E+01
    -12.485  0.1846E+00  0.2930E+01
    -12.456  0.8098E-01  0.2933E+01
    -12.428  0.3304E-01  0.2934E+01
    -12.399  0.6065E-01  0.2935E+01
    -12.370  0.1367E+00  0.2939E+01
    -12.342  0.1988E+00  0.2945E+01
    -12.313  0.1910E+00  0.2951E+01
    -12.284  0.1253E+00  0.2954E+01
    -12.256  0.7773E-01  0.2956E+01
    -12.227  0.9585E-01  0.2959E+01
    -12.198  0.1254E+00  0.2963E+01
    -12.170  0.1089E+00  0.2966E+01
    -12.141  0.9689E-01  0.2969E+01
    -12.112  0.1334E+00  0.2972E+01
    -12.084  0.1710E+00  0.2977E+01
    -12.055  0.1737E+00  0.2982E+01
    -12.026  0.1358E+00  0.2986E+01
    -11.998  0.7094E-01  0.2988E+01
    -11.969  0.3171E-01  0.2989E+01
    -11.941  0.6073E-01  0.2991E+01
    -11.912  0.1658E+00  0.2996E+01
    -11.883  0.2876E+00  0.3004E+01
    -11.855  0.4022E+00  0.3015E+01
    -11.826  0.6046E+00  0.3033E+01
    -11.797  0.8047E+00  0.3056E+01
    -11.769  0.8106E+00  0.3079E+01
    -11.740  0.7124E+00  0.3099E+01
    -11.711  0.6567E+00  0.3118E+01
    -11.683  0.6093E+00  0.3136E+01
    -11.654  0.5154E+00  0.3150E+01
    -11.625  0.4263E+00  0.3163E+01
    -11.597  0.3836E+00  0.3174E+01
    -11.568  0.3850E+00  0.3185E+01
    -11.539  0.4122E+00  0.3196E+01
    -11.511  0.4006E+00  0.3208E+01
    -11.482  0.3687E+00  0.3219E+01
    -11.454  0.3720E+00  0.3229E+01
    -11.425  0.4003E+00  0.3241E+01
    -11.396  0.4093E+00  0.3252E+01
    -11.368  0.3553E+00  0.3263E+01
    -11.339  0.2963E+00  0.3271E+01
    -11.310  0.2902E+00  0.3279E+01
    -11.282  0.2987E+00  0.3288E+01
    -11.253  0.3362E+00  0.3298E+01
    -11.224  0.4032E+00  0.3309E+01
    -11.196  0.4203E+00  0.3321E+01
    -11.167  0.3684E+00  0.3332E+01
    -11.138  0.2699E+00  0.3339E+01
    -11.110  0.1830E+00  0.3345E+01
    -11.081  0.2171E+00  0.3351E+01
    -11.052  0.3682E+00  0.3361E+01
    -11.024  0.4592E+00  0.3375E+01
    -10.995  0.3939E+00  0.3386E+01
    -10.967  0.2846E+00  0.3394E+01
    -10.938  0.2340E+00  0.3401E+01
    -10.909  0.2405E+00  0.3408E+01
    -10.881  0.2787E+00  0.3416E+01
    -10.852  0.3124E+00  0.3425E+01
    -10.823  0.3244E+00  0.3434E+01
    -10.795  0.3581E+00  0.3444E+01
    -10.766  0.3752E+00  0.3455E+01
    -10.737  0.2861E+00  0.3463E+01
    -10.709  0.1941E+00  0.3469E+01
    -10.680  0.2354E+00  0.3475E+01
    -10.651  0.3251E+00  0.3485E+01
    -10.623  0.3364E+00  0.3494E+01
    -10.594  0.3138E+00  0.3503E+01
    -10.565  0.3057E+00  0.3512E+01
    -10.537  0.2648E+00  0.3520E+01
    -10.508  0.2519E+00  0.3527E+01
    -10.479  0.3350E+00  0.3536E+01
    -10.451  0.3581E+00  0.3547E+01
    -10.422  0.2416E+00  0.3554E+01
    -10.394  0.1684E+00  0.3558E+01
    -10.365  0.2497E+00  0.3566E+01
    -10.336  0.3656E+00  0.3576E+01
    -10.308  0.3873E+00  0.3587E+01
    -10.279  0.3386E+00  0.3597E+01
    -10.250  0.2655E+00  0.3604E+01
    -10.222  0.1844E+00  0.3610E+01
    -10.193  0.1700E+00  0.3615E+01
    -10.164  0.2668E+00  0.3622E+01
    -10.136  0.3720E+00  0.3633E+01
    -10.107  0.3794E+00  0.3644E+01
    -10.078  0.3160E+00  0.3653E+01
    -10.050  0.2634E+00  0.3660E+01
    -10.021  0.2446E+00  0.3667E+01
     -9.992  0.2244E+00  0.3674E+01
     -9.964  0.2116E+00  0.3680E+01
     -9.935  0.2579E+00  0.3687E+01
     -9.907  0.3382E+00  0.3697E+01
     -9.878  0.3724E+00  0.3708E+01
     -9.849  0.3550E+00  0.3718E+01
     -9.821  0.2969E+00  0.3726E+01
     -9.792  0.1914E+00  0.3732E+01
     -9.763  0.1353E+00  0.3736E+01
     -9.735  0.2048E+00  0.3742E+01
     -9.706  0.3377E+00  0.3751E+01
     -9.677  0.4247E+00  0.3763E+01
     -9.649  0.3985E+00  0.3775E+01
     -9.620  0.2825E+00  0.3783E+01
     -9.591  0.1626E+00  0.3788E+01
     -9.563  0.1309E+00  0.3791E+01
     -9.534  0.2324E+00  0.3798E+01
     -9.505  0.3649E+00  0.3808E+01
     -9.477  0.3853E+00  0.3819E+01
     -9.448  0.3333E+00  0.3829E+01
     -9.420  0.2790E+00  0.3837E+01
     -9.391  0.2071E+00  0.3843E+01
     -9.362  0.1910E+00  0.3848E+01
     -9.334  0.2828E+00  0.3856E+01
     -9.305  0.3490E+00  0.3866E+01
     -9.276  0.2977E+00  0.3875E+01
     -9.248  0.2512E+00  0.3882E+01
     -9.219  0.2820E+00  0.3890E+01
     -9.190  0.2956E+00  0.3899E+01
     -9.162  0.2815E+00  0.3907E+01
     -9.133  0.2922E+00  0.3915E+01
     -9.104  0.2918E+00  0.3924E+01
     -9.076  0.2490E+00  0.3931E+01
     -9.047  0.2269E+00  0.3937E+01
     -9.018  0.2840E+00  0.3945E+01
     -8.990  0.3525E+00  0.3955E+01
     -8.961  0.3659E+00  0.3966E+01
     -8.933  0.4538E+00  0.3979E+01
     -8.904  0.8215E+00  0.4002E+01
     -8.875  0.1346E+01  0.4041E+01
     -8.847  0.1589E+01  0.4087E+01
     -8.818  0.1449E+01  0.4128E+01
     -8.789  0.1217E+01  0.4163E+01
     -8.761  0.1055E+01  0.4193E+01
     -8.732  0.9202E+00  0.4220E+01
     -8.703  0.8277E+00  0.4243E+01
     -8.675  0.8246E+00  0.4267E+01
     -8.646  0.8224E+00  0.4290E+01
     -8.617  0.7575E+00  0.4312E+01
     -8.589  0.6964E+00  0.4332E+01
     -8.560  0.6810E+00  0.4352E+01
     -8.531  0.6796E+00  0.4371E+01
     -8.503  0.6999E+00  0.4391E+01
     -8.474  0.7415E+00  0.4412E+01
     -8.445  0.7296E+00  0.4433E+01
     -8.417  0.6455E+00  0.4452E+01
     -8.388  0.5445E+00  0.4467E+01
     -8.360  0.5295E+00  0.4482E+01
     -8.331  0.6020E+00  0.4500E+01
     -8.302  0.6888E+00  0.4519E+01
     -8.274  0.7519E+00  0.4541E+01
     -8.245  0.7038E+00  0.4561E+01
     -8.216  0.5751E+00  0.4578E+01
     -8.188  0.4935E+00  0.4592E+01
     -8.159  0.4800E+00  0.4606E+01
     -8.130  0.5533E+00  0.4621E+01
     -8.102  0.6941E+00  0.4641E+01
     -8.073  0.7580E+00  0.4663E+01
     -8.044  0.6797E+00  0.4682E+01
     -8.016  0.5787E+00  0.4699E+01
     -7.987  0.5187E+00  0.4714E+01
     -7.958  0.4911E+00  0.4728E+01
     -7.930  0.5694E+00  0.4744E+01
     -7.901  0.7026E+00  0.4764E+01
     -7.873  0.7325E+00  0.4785E+01
     -7.844  0.6988E+00  0.4805E+01
     -7.815  0.6830E+00  0.4825E+01
     -7.787  0.6429E+00  0.4843E+01
     -7.758  0.6314E+00  0.4861E+01
     -7.729  0.7496E+00  0.4883E+01
     -7.701  0.9790E+00  0.4911E+01
     -7.672  0.1314E+01  0.4949E+01
     -7.643  0.1620E+01  0.4995E+01
     -7.615  0.1579E+01  0.5040E+01
     -7.586  0.1239E+01  0.5076E+01
     -7.557  0.9361E+00  0.5103E+01
     -7.529  0.7576E+00  0.5124E+01
     -7.500  0.6561E+00  0.5143E+01
     -7.471  0.6580E+00  0.5162E+01
     -7.443  0.7406E+00  0.5183E+01
     -7.414  0.7741E+00  0.5205E+01
     -7.386  0.7052E+00  0.5226E+01
     -7.357  0.6173E+00  0.5243E+01
     -7.328  0.5565E+00  0.5259E+01
     -7.300  0.4871E+00  0.5273E+01
     -7.271  0.4532E+00  0.5286E+01
     -7.242  0.5758E+00  0.5303E+01
     -7.214  0.7705E+00  0.5325E+01
     -7.185  0.7513E+00  0.5346E+01
     -7.156  0.5184E+00  0.5361E+01
     -7.128  0.3683E+00  0.5372E+01
     -7.099  0.4119E+00  0.5383E+01
     -7.070  0.5117E+00  0.5398E+01
     -7.042  0.5792E+00  0.5415E+01
     -7.013  0.6272E+00  0.5433E+01
     -6.984  0.6262E+00  0.5451E+01
     -6.956  0.5514E+00  0.5466E+01
     -6.927  0.4365E+00  0.5479E+01
     -6.899  0.3574E+00  0.5489E+01
     -6.870  0.4103E+00  0.5501E+01
     -6.841  0.5565E+00  0.5517E+01
     -6.813  0.6429E+00  0.5535E+01
     -6.784  0.5970E+00  0.5552E+01
     -6.755  0.4657E+00  0.5566E+01
     -6.727  0.3966E+00  0.5577E+01
     -6.698  0.4225E+00  0.5589E+01
     -6.669  0.4589E+00  0.5602E+01
     -6.641  0.4976E+00  0.5617E+01
     -6.612  0.5420E+00  0.5632E+01
     -6.583  0.5395E+00  0.5648E+01
     -6.555  0.4760E+00  0.5661E+01
     -6.526  0.4401E+00  0.5674E+01
     -6.497  0.4659E+00  0.5687E+01
     -6.469  0.4602E+00  0.5700E+01
     -6.440  0.4113E+00  0.5712E+01
     -6.412  0.4285E+00  0.5724E+01
     -6.383  0.5226E+00  0.5739E+01
     -6.354  0.5945E+00  0.5756E+01
     -6.326  0.5540E+00  0.5772E+01
     -6.297  0.3904E+00  0.5783E+01
     -6.268  0.2640E+00  0.5791E+01
     -6.240  0.3492E+00  0.5801E+01
     -6.211  0.5792E+00  0.5818E+01
     -6.182  0.6914E+00  0.5837E+01
     -6.154  0.5557E+00  0.5853E+01
     -6.125  0.3337E+00  0.5863E+01
     -6.096  0.2488E+00  0.5870E+01
     -6.068  0.3833E+00  0.5881E+01
     -6.039  0.5894E+00  0.5898E+01
     -6.010  0.6266E+00  0.5916E+01
     -5.982  0.5003E+00  0.5930E+01
     -5.953  0.3755E+00  0.5941E+01
     -5.924  0.3369E+00  0.5951E+01
     -5.896  0.4142E+00  0.5962E+01
     -5.867  0.5330E+00  0.5978E+01
     -5.839  0.5377E+00  0.5993E+01
     -5.810  0.4694E+00  0.6007E+01
     -5.781  0.4472E+00  0.6019E+01
     -5.753  0.4195E+00  0.6031E+01
     -5.724  0.4138E+00  0.6043E+01
     -5.695  0.4803E+00  0.6057E+01
     -5.667  0.5071E+00  0.6071E+01
     -5.638  0.4775E+00  0.6085E+01
     -5.609  0.4749E+00  0.6099E+01
     -5.581  0.4521E+00  0.6112E+01
     -5.552  0.4083E+00  0.6123E+01
     -5.523  0.4559E+00  0.6136E+01
     -5.495  0.5316E+00  0.6152E+01
     -5.466  0.5132E+00  0.6166E+01
     -5.437  0.4710E+00  0.6180E+01
     -5.409  0.4292E+00  0.6192E+01
     -5.380  0.4006E+00  0.6204E+01
     -5.352  0.4924E+00  0.6218E+01
     -5.323  0.5934E+00  0.6235E+01
     -5.294  0.5331E+00  0.6250E+01
     -5.266  0.4183E+00  0.6262E+01
     -5.237  0.3969E+00  0.6273E+01
     -5.208  0.4770E+00  0.6287E+01
     -5.180  0.5770E+00  0.6304E+01
     -5.151  0.5716E+00  0.6320E+01
     -5.122  0.4689E+00  0.6333E+01
     -5.094  0.4352E+00  0.6346E+01
     -5.065  0.5237E+00  0.6361E+01
     -5.036  0.5581E+00  0.6377E+01
     -5.008  0.4803E+00  0.6391E+01
     -4.979  0.4828E+00  0.6404E+01
     -4.950  0.5783E+00  0.6421E+01
     -4.922  0.6101E+00  0.6439E+01
     -4.893  0.5401E+00  0.6454E+01
     -4.865  0.4523E+00  0.6467E+01
     -4.836  0.4865E+00  0.6481E+01
     -4.807  0.6146E+00  0.6498E+01
     -4.779  0.6558E+00  0.6517E+01
     -4.750  0.6110E+00  0.6535E+01
     -4.721  0.5727E+00  0.6551E+01
     -4.693  0.5601E+00  0.6567E+01
     -4.664  0.5676E+00  0.6583E+01
     -4.635  0.6003E+00  0.6601E+01
     -4.607  0.7041E+00  0.6621E+01
     -4.578  0.7800E+00  0.6643E+01
     -4.549  0.7002E+00  0.6663E+01
     -4.521  0.6131E+00  0.6681E+01
     -4.492  0.6802E+00  0.6700E+01
     -4.463  0.7945E+00  0.6723E+01
     -4.435  0.8590E+00  0.6748E+01
     -4.406  0.9139E+00  0.6774E+01
     -4.378  0.9620E+00  0.6801E+01
     -4.349  0.1054E+01  0.6832E+01
     -4.320  0.1258E+01  0.6868E+01
     -4.292  0.1567E+01  0.6913E+01
     -4.263  0.1837E+01  0.6965E+01
     -4.234  0.1706E+01  0.7014E+01
     -4.206  0.1112E+01  0.7046E+01
     -4.177  0.5085E+00  0.7060E+01
     -4.148  0.1761E+00  0.7065E+01
     -4.120  0.7191E-01  0.7068E+01
     -4.091  0.9881E-01  0.7070E+01
     -4.062  0.1664E+00  0.7075E+01
     -4.034  0.2017E+00  0.7081E+01
     -4.005  0.1927E+00  0.7086E+01
     -3.976  0.1720E+00  0.7091E+01
     -3.948  0.1523E+00  0.7096E+01
     -3.919  0.1147E+00  0.7099E+01
     -3.890  0.1037E+00  0.7102E+01
     -3.862  0.1676E+00  0.7107E+01
     -3.833  0.2375E+00  0.7114E+01
     -3.805  0.2333E+00  0.7120E+01
     -3.776  0.1945E+00  0.7126E+01
     -3.747  0.1683E+00  0.7131E+01
     -3.719  0.1590E+00  0.7135E+01
     -3.690  0.1964E+00  0.7141E+01
     -3.661  0.3219E+00  0.7150E+01
     -3.633  0.6182E+00  0.7168E+01
     -3.604  0.1083E+01  0.7199E+01
     -3.575  0.1419E+01  0.7239E+01
     -3.547  0.1341E+01  0.7278E+01
     -3.518  0.1029E+01  0.7307E+01
     -3.489  0.7924E+00  0.7330E+01
     -3.461  0.7030E+00  0.7350E+01
     -3.432  0.6776E+00  0.7370E+01
     -3.403  0.6189E+00  0.7387E+01
     -3.375  0.5261E+00  0.7402E+01
     -3.346  0.4562E+00  0.7415E+01
     -3.318  0.4225E+00  0.7428E+01
     -3.289  0.4199E+00  0.7440E+01
     -3.260  0.4511E+00  0.7453E+01
     -3.232  0.4794E+00  0.7466E+01
     -3.203  0.4476E+00  0.7479E+01
     -3.174  0.3794E+00  0.7490E+01
     -3.146  0.3336E+00  0.7500E+01
     -3.117  0.3193E+00  0.7509E+01
     -3.088  0.3335E+00  0.7518E+01
     -3.060  0.3776E+00  0.7529E+01
     -3.031  0.4084E+00  0.7541E+01
     -3.002  0.3753E+00  0.7551E+01
     -2.974  0.3134E+00  0.7560E+01
     -2.945  0.2769E+00  0.7568E+01
     -2.916  0.2703E+00  0.7576E+01
     -2.888  0.2932E+00  0.7585E+01
     -2.859  0.3427E+00  0.7594E+01
     -2.831  0.3671E+00  0.7605E+01
     -2.802  0.3269E+00  0.7614E+01
     -2.773  0.2694E+00  0.7622E+01
     -2.745  0.2410E+00  0.7629E+01
     -2.716  0.2421E+00  0.7636E+01
     -2.687  0.2747E+00  0.7644E+01
     -2.659  0.3265E+00  0.7653E+01
     -2.630  0.3379E+00  0.7663E+01
     -2.601  0.2886E+00  0.7671E+01
     -2.573  0.2368E+00  0.7678E+01
     -2.544  0.2170E+00  0.7684E+01
     -2.515  0.2266E+00  0.7690E+01
     -2.487  0.2688E+00  0.7698E+01
     -2.458  0.3166E+00  0.7707E+01
     -2.429  0.3095E+00  0.7716E+01
     -2.401  0.2534E+00  0.7723E+01
     -2.372  0.2109E+00  0.7729E+01
     -2.344  0.2012E+00  0.7735E+01
     -2.315  0.2240E+00  0.7742E+01
     -2.286  0.2752E+00  0.7749E+01
     -2.258  0.3081E+00  0.7758E+01
     -2.229  0.2751E+00  0.7766E+01
     -2.200  0.2193E+00  0.7772E+01
     -2.172  0.1905E+00  0.7778E+01
     -2.143  0.1958E+00  0.7784E+01
     -2.114  0.2351E+00  0.7790E+01
     -2.086  0.2868E+00  0.7798E+01
     -2.057  0.2900E+00  0.7807E+01
     -2.028  0.2371E+00  0.7814E+01
     -2.000  0.1927E+00  0.7819E+01
     -1.971  0.1811E+00  0.7824E+01
     -1.942  0.2081E+00  0.7830E+01
     -1.914  0.2598E+00  0.7838E+01
     -1.885  0.2868E+00  0.7846E+01
     -1.857  0.2490E+00  0.7853E+01
     -1.828  0.1937E+00  0.7859E+01
     -1.799  0.1743E+00  0.7864E+01
     -1.771  0.1881E+00  0.7869E+01
     -1.742  0.2404E+00  0.7876E+01
     -1.713  0.2786E+00  0.7884E+01
     -1.685  0.2528E+00  0.7891E+01
     -1.656  0.1993E+00  0.7897E+01
     -1.627  0.1663E+00  0.7902E+01
     -1.599  0.1822E+00  0.7907E+01
     -1.570  0.2306E+00  0.7913E+01
     -1.541  0.2706E+00  0.7921E+01
     -1.513  0.2531E+00  0.7928E+01
     -1.484  0.1924E+00  0.7934E+01
     -1.455  0.1665E+00  0.7939E+01
     -1.427  0.1837E+00  0.7944E+01
     -1.398  0.2307E+00  0.7951E+01
     -1.369  0.2703E+00  0.7958E+01
     -1.341  0.2352E+00  0.7965E+01
     -1.312  0.1840E+00  0.7970E+01
     -1.284  0.1942E+00  0.7976E+01
     -1.255  0.2933E+00  0.7984E+01
     -1.226  0.4603E+00  0.7997E+01
     -1.198  0.4988E+00  0.8012E+01
     -1.169  0.3499E+00  0.8022E+01
     -1.140  0.2172E+00  0.8028E+01
     -1.112  0.1814E+00  0.8033E+01
     -1.083  0.2175E+00  0.8039E+01
     -1.054  0.2693E+00  0.8047E+01
     -1.026  0.2507E+00  0.8054E+01
     -0.997  0.1984E+00  0.8060E+01
     -0.968  0.1715E+00  0.8065E+01
     -0.940  0.1832E+00  0.8070E+01
     -0.911  0.2392E+00  0.8077E+01
     -0.882  0.2745E+00  0.8085E+01
     -0.854  0.2488E+00  0.8092E+01
     -0.825  0.2002E+00  0.8098E+01
     -0.797  0.1760E+00  0.8103E+01
     -0.768  0.1991E+00  0.8108E+01
     -0.739  0.2525E+00  0.8116E+01
     -0.711  0.2901E+00  0.8124E+01
     -0.682  0.2626E+00  0.8132E+01
     -0.653  0.2098E+00  0.8138E+01
     -0.625  0.1884E+00  0.8143E+01
     -0.596  0.2061E+00  0.8149E+01
     -0.567  0.2617E+00  0.8156E+01
     -0.539  0.3047E+00  0.8165E+01
     -0.510  0.2843E+00  0.8173E+01
     -0.481  0.2319E+00  0.8180E+01
     -0.453  0.2061E+00  0.8186E+01
     -0.424  0.2177E+00  0.8192E+01
     -0.395  0.2666E+00  0.8200E+01
     -0.367  0.3217E+00  0.8209E+01
     -0.338  0.3210E+00  0.8218E+01
     -0.310  0.2722E+00  0.8226E+01
     -0.281  0.2379E+00  0.8233E+01
     -0.252  0.2388E+00  0.8240E+01
     -0.224  0.2750E+00  0.8247E+01
     -0.195  0.3368E+00  0.8257E+01
     -0.166  0.3681E+00  0.8268E+01
     -0.138  0.3359E+00  0.8277E+01
     -0.109  0.2921E+00  0.8286E+01
     -0.080  0.2789E+00  0.8294E+01
     -0.052  0.2980E+00  0.8302E+01
     -0.023  0.3535E+00  0.8312E+01
      0.006  0.4190E+00  0.8324E+01
      0.034  0.4308E+00  0.8337E+01
      0.063  0.3937E+00  0.8348E+01
      0.092  0.3705E+00  0.8358E+01
      0.120  0.3822E+00  0.8369E+01
      0.149  0.4262E+00  0.8382E+01
      0.177  0.5052E+00  0.8396E+01
      0.206  0.5819E+00  0.8413E+01
      0.235  0.6033E+00  0.8430E+01