    2    2    1    1
  0.2621357E+02  0.2460440E-09  0.2460440E-09  0.1000000E-08  0.5000000E-15
  1.000000000000000E-004
  CAR 
                                         
      8    180     20
 
  0.0000000E+00  0.0000000E+00  0.0000000E+00  0.5555556E-02
    1      -20.795310   1.000000
    2       -8.885448   1.000000
    3       -4.248938   1.000000
    4       -4.248175   1.000000
    5        1.890212   0.000000
    6        3.492328   0.000000
    7        4.674343   0.000000
    8        7.167395   0.000000
    9        7.168392   0.000000
   10        9.417145   0.000000
   11       10.312569   0.000000
   12       11.250247   0.000000
   13       11.422310   0.000000
   14       18.402618   0.000000
   15       21.257156   0.000000
   16       21.377493   0.000000
   17       27.064323   0.000000
   18       27.064343   0.000000
   19       28.564223   0.000000
   20       30.492381   0.000000
 
  0.8474576E-02  0.0000000E+00  0.0000000E+00  0.5555556E-02
    1      -20.793604   1.000000
    2       -8.883406   1.000000
    3       -4.255510   1.000000
    4       -4.252448   1.000000
    5        1.892539   0.000000
    6        3.494631   0.000000
    7        4.676637   0.000000
    8        7.172364   0.000000
    9        7.176284   0.000000
   10        9.419322   0.000000
   11       10.306494   0.000000
   12       11.252589   0.000000
   13       11.425303   0.000000
   14       18.404142   0.000000
   15       21.260584   0.000000
   16       21.382129   0.000000
   17       27.044486   0.000000
   18       27.048610   0.000000
   19       28.533629   0.000000
   20       30.517332   0.000000
 
  0.1694915E-01  0.0000000E+00  0.0000000E+00  0.5555556E-02
    1      -20.788489   1.000000
    2       -8.877284   1.000000
    3       -4.276794   1.000000
    4       -4.263776   1.000000
    5        1.899506   0.000000
    6        3.501538   0.000000
    7        4.683497   0.000000
    8        7.177080   0.000000
    9        7.199326   0.000000
   10        9.425847   0.000000
   11       10.288296   0.000000
   12       11.259544   0.000000
   13       11.434312   0.000000
   14       18.408686   0.000000
   15       21.270371   0.000000
   16       21.396374   0.000000
   17       26.986552   0.000000
   18       26.998886   0.000000
   19       28.454791   0.000000
   20       30.588416   0.000000
 
  0.2542373E-01  0.0000000E+00  0.0000000E+00  0.5555556E-02
    1      -20.779967   1.000000
    2       -8.867090   1.000000
    3       -4.312192   1.000000
    4       -4.282601   1.000000
    5        1.911103   0.000000
    6        3.513046   0.000000
    7        4.694908   0.000000
    8        7.178953   0.000000
    9        7.235729   0.000000
   10        9.436710   0.000000
   11       10.258051   0.000000
   12       11.271079   0.000000
   13       11.449419   0.000000
   14       18.416191   0.000000
   15       21.285515   0.000000
   16       21.420930   0.000000
   17       26.894859   0.000000
   18       26.908723   0.000000
   19       28.357062   0.000000
   20       30.708054   0.000000
 
  0.3389831E-01  0.0000000E+00  0.0000000E+00  0.5555556E-02
    1      -20.768034   1.000000
    2       -8.852750   1.000000
    3       -4.361359   1.000000
    4       -4.308612   1.000000
    5        1.927353   0.000000
    6        3.529185   0.000000
    7        4.710910   0.000000
    8        7.187187   0.000000
    9        7.287945   0.000000
   10        9.451991   0.000000
   11       10.215883   0.000000
   12       11.287257   0.000000
   13       11.470776   0.000000
   14       18.426838   0.000000
   15       21.304979   0.000000
   16       21.456942   0.000000
   17       26.771850   0.000000
   18       26.775200   0.000000
   19       28.269151   0.000000
   20       30.892527   0.000000
 
  0.4237288E-01  0.0000000E+00  0.0000000E+00  0.5555556E-02
    1      -20.752693   1.000000
    2       -8.834402   1.000000
    3       -4.424014   1.000000
    4       -4.341641   1.000000
    5        1.948247   0.000000
    6        3.549899   0.000000
    7        4.731487   0.000000
    8        7.195189   0.000000
    9        7.354668   0.000000
   10        9.471533   0.000000
   11       10.161964   0.000000
   12       11.308025   0.000000
   13       11.498519   0.000000
   14       18.440113   0.000000
   15       21.327844   0.000000
   16       21.504880   0.000000
   17       26.587240   0.000000
   18       26.633557   0.000000
   19       28.207660   0.000000
   20       31.026685   0.000000
 
  0.5084746E-01  0.0000000E+00  0.0000000E+00  0.5555556E-02
    1      -20.733945   1.000000
    2       -8.811985   1.000000
    3       -4.499742   1.000000
    4       -4.381399   1.000000
    5        1.973786   0.000000
    6        3.575213   0.000000
    7        4.756642   0.000000
    8        7.204081   0.000000
    9        7.435591   0.000000
   10        9.495394   0.000000
   11       10.096514   0.000000
   12       11.333365   0.000000
   13       11.532870   0.000000
   14       18.456098   0.000000
   15       21.353741   0.000000
   16       21.564752   0.000000
   17       26.361074   0.000000
   18       26.475327   0.000000
   19       28.177199   0.000000
   20       31.178398   0.000000
 
  0.5932203E-01  0.0000000E+00  0.0000000E+00  0.5555556E-02
    1      -20.711789   1.000000
    2       -8.784826   1.000000
    3       -4.588122   1.000000
    4       -4.427638   1.000000
    5        2.003959   0.000000
    6        3.605395   0.000000
    7        4.786356   0.000000
    8        7.212064   0.000000
    9        7.531938   0.000000
   10        9.524255   0.000000
   11       10.019806   0.000000
   12       11.363247   0.000000
   13       11.574064   0.000000
   14       18.476427   0.000000
   15       21.382607   0.000000
   16       21.635676   0.000000
   17       26.103468   0.000000
   18       26.304992   0.000000
   19       28.175773   0.000000
   20       31.020664   0.000000
 
  0.6779661E-01  0.0000000E+00  0.0000000E+00  0.5555556E-02
    1      -20.686236   1.000000
    2       -8.754304   1.000000
    3       -4.688539   1.000000
    4       -4.479814   1.000000
    5        2.038786   0.000000
    6        3.639893   0.000000
    7        4.820665   0.000000
    8        7.221189   0.000000
    9        7.640081   0.000000
   10        9.556628   0.000000
   11        9.932172   0.000000
   12       11.397637   0.000000
   13       11.622282   0.000000
   14       18.497306   0.000000
   15       21.414608   0.000000
   16       21.717723   0.000000
   17       25.824456   0.000000
   18       26.126142   0.000000
   19       28.194269   0.000000
   20       30.484795   0.000000
 
  0.7627119E-01  0.0000000E+00  0.0000000E+00  0.5555556E-02
    1      -20.657283   1.000000
    2       -8.719734   1.000000
    3       -4.800460   1.000000
    4       -4.537598   1.000000
    5        2.078260   0.000000
    6        3.678982   0.000000
    7        4.859554   0.000000
    8        7.229678   0.000000
    9        7.761222   0.000000
   10        9.593043   0.000000
   11        9.834113   0.000000
   12       11.436500   0.000000
   13       11.677738   0.000000
   14       18.520332   0.000000
   15       21.449883   0.000000
   16       21.809747   0.000000
   17       25.532151   0.000000
   18       25.941545   0.000000
   19       28.228346   0.000000
   20       29.995454   0.000000
 
  0.8474576E-01  0.0000000E+00  0.0000000E+00  0.5555556E-02
    1      -20.624935   1.000000
    2       -8.681124   1.000000
    3       -4.923283   1.000000
    4       -4.600558   1.000000
    5        2.122379   0.000000
    6        3.722655   0.000000
    7        4.903023   0.000000
    8        7.237031   0.000000
    9        7.894894   0.000000
   10        9.632066   0.000000
   11        9.727394   0.000000
   12       11.479802   0.000000
   13       11.740592   0.000000
   14       18.545237   0.000000
   15       21.488540   0.000000
   16       21.910856   0.000000
   17       25.232555   0.000000
   18       25.753336   0.000000
   19       28.272762   0.000000
   20       29.510271   0.000000
 
  0.9322034E-01  0.0000000E+00  0.0000000E+00  0.5555556E-02
    1      -20.589196   1.000000
    2       -8.638564   1.000000
    3       -5.057418   1.000000
    4       -4.668301   1.000000
    5        2.171143   0.000000
    6        3.770874   0.000000
    7        4.951067   0.000000
    8        7.242466   0.000000
    9        8.040555   0.000000
   10        9.597704   0.000000
   11        9.685167   0.000000
   12       11.527509   0.000000
   13       11.810396   0.000000
   14       18.571418   0.000000
   15       21.530632   0.000000
   16       22.019875   0.000000
   17       24.929894   0.000000
   18       25.563132   0.000000
   19       28.321958   0.000000
   20       29.029562   0.000000
 
  0.1016949E+00  0.0000000E+00  0.0000000E+00  0.5555556E-02
    1      -20.550068   1.000000
    2       -8.591861   1.000000
    3       -5.199855   1.000000
    4       -4.740271   1.000000
    5        2.224553   0.000000
    6        3.823720   0.000000
    7        5.003688   0.000000
    8        7.246239   0.000000
    9        8.197815   0.000000
   10        9.473347   0.000000
   11        9.732192   0.000000
   12       11.579598   0.000000
   13       11.888200   0.000000
   14       18.599150   0.000000
   15       21.576212   0.000000
   16       22.136054   0.000000
   17       24.627953   0.000000
   18       25.372248   0.000000
   19       28.371937   0.000000
   20       28.554380   0.000000
 
  0.1101695E+00  0.0000000E+00  0.0000000E+00  0.5555556E-02
    1      -20.507556   1.000000
    2       -8.541286   1.000000
    3       -5.351271   1.000000
    4       -4.816669   1.000000
    5        2.282602   0.000000
    6        3.881070   0.000000
    7        5.060867   0.000000
    8        7.248007   0.000000
    9        8.365940   0.000000
   10        9.335022   0.000000
   11        9.785556   0.000000
   12       11.636031   0.000000
   13       11.973083   0.000000
   14       18.627087   0.000000
   15       21.625135   0.000000
   16       22.257361   0.000000
   17       24.328546   0.000000
   18       25.181185   0.000000
   19       28.085029   0.000000
   20       28.412574   0.000000
 
  0.1186441E+00  0.0000000E+00  0.0000000E+00  0.5555556E-02
    1      -20.461672   1.000000
    2       -8.486682   1.000000
    3       -5.511594   1.000000
    4       -4.895988   1.000000
    5        2.345277   0.000000
    6        3.942998   0.000000
    7        5.122567   0.000000
    8        7.244575   0.000000
    9        8.543760   0.000000
   10        9.188430   0.000000
   11        9.843589   0.000000
   12       11.696780   0.000000
   13       12.065664   0.000000
   14       18.655431   0.000000
   15       21.677196   0.000000
   16       22.381763   0.000000
   17       24.033547   0.000000
   18       24.991601   0.000000
   19       27.622432   0.000000
   20       28.431768   0.000000
 
  0.1271186E+00  0.0000000E+00  0.0000000E+00  0.5555556E-02
    1      -20.412409   1.000000
    2       -8.428079   1.000000
    3       -5.679520   1.000000
    4       -4.978123   1.000000
    5        2.412613   0.000000
    6        4.009481   0.000000
    7        5.188868   0.000000
    8        7.240641   0.000000
    9        8.732610   0.000000
   10        9.033366   0.000000
   11        9.905993   0.000000
   12       11.761903   0.000000
   13       12.165413   0.000000
   14       18.683406   0.000000
   15       21.732890   0.000000
   16       22.509743   0.000000
   17       23.744852   0.000000
   18       24.803700   0.000000
   19       27.167673   0.000000
   20       28.407380   0.000000
 
  0.1355932E+00  0.0000000E+00  0.0000000E+00  0.5555556E-02
    1      -20.359780   1.000000
    2       -8.365448   1.000000
    3       -5.854258   1.000000
    4       -5.062483   1.000000
    5        2.484584   0.000000
    6        4.080525   0.000000
    7        5.259699   0.000000
    8        7.233594   0.000000
    9        8.872018   0.000000
   10        8.932415   0.000000
   11        9.972687   0.000000
   12       11.831325   0.000000
   13       12.271408   0.000000
   14       18.710201   0.000000
   15       21.791695   0.000000
   16       22.637119   0.000000
   17       23.464363   0.000000
   18       24.618003   0.000000
   19       26.722294   0.000000
   20       28.306005   0.000000
 
  0.1440678E+00  0.0000000E+00  0.0000000E+00  0.5555556E-02
    1      -20.303794   1.000000
    2       -8.298897   1.000000
    3       -6.036462   1.000000
    4       -5.149373   1.000000
    5        2.561186   0.000000
    6        4.156073   0.000000
    7        5.335046   0.000000
    8        7.224636   0.000000
    9        8.701299   0.000000
   10        9.139833   0.000000
   11       10.043611   0.000000
   12       11.905021   0.000000
   13       12.382931   0.000000
   14       18.734817   0.000000
   15       21.853389   0.000000
   16       22.760977   0.000000
   17       23.192307   0.000000
   18       24.434779   0.000000
   19       26.288497   0.000000
   20       28.100198   0.000000
 
  0.1525424E+00  0.0000000E+00  0.0000000E+00  0.5555556E-02
    1      -20.244449   1.000000
    2       -8.228497   1.000000
    3       -6.224039   1.000000
    4       -5.237844   1.000000
    5        2.642435   0.000000
    6        4.236092   0.000000
    7        5.414917   0.000000
    8        7.212054   0.000000
    9        8.523511   0.000000
   10        9.355862   0.000000
   11       10.118654   0.000000
   12       11.983097   0.000000
   13       12.501774   0.000000
   14       18.755967   0.000000
   15       21.917992   0.000000
   16       22.876004   0.000000
   17       22.930508   0.000000
   18       24.254411   0.000000
   19       25.870066   0.000000
   20       27.806260   0.000000
 
  0.1610169E+00  0.0000000E+00  0.0000000E+00  0.5555556E-02
    1      -20.181756   1.000000
    2       -8.154209   1.000000
    3       -6.417039   1.000000
    4       -5.327640   1.000000
    5        2.728316   0.000000
    6        4.320576   0.000000
    7        5.499263   0.000000
    8        7.196771   0.000000
    9        8.339077   0.000000
   10        9.579996   0.000000
   11       10.197835   0.000000
   12       12.065486   0.000000
   13       12.626154   0.000000
   14       18.772464   0.000000
   15       21.984893   0.000000
   16       22.680272   0.000000
   17       22.974318   0.000000
   18       24.077159   0.000000
   19       25.473211   0.000000
   20       27.460638   0.000000
 
  0.1694915E+00  0.0000000E+00  0.0000000E+00  0.5555556E-02
    1      -20.115732   1.000000
    2       -8.076060   1.000000
    3       -6.615468   1.000000
    4       -5.418532   1.000000
    5        2.818813   0.000000
    6        4.409490   0.000000
    7        5.588011   0.000000
    8        7.178459   0.000000
    9        8.148362   0.000000
   10        9.811749   0.000000
   11       10.281116   0.000000
   12       12.152074   0.000000
   13       12.753314   0.000000
   14       18.782749   0.000000
   15       22.052898   0.000000
   16       22.442948   0.000000
   17       23.041741   0.000000
   18       23.903234   0.000000
   19       25.108439   0.000000
   20       27.090630   0.000000
 
  0.1779661E+00  0.0000000E+00  0.0000000E+00  0.5555556E-02
    1      -20.046368   1.000000
    2       -7.994073   1.000000
    3       -6.817728   1.000000
    4       -5.509737   1.000000
    5        2.913957   0.000000
    6        4.502789   0.000000
    7        5.681184   0.000000
    8        7.158363   0.000000
    9        7.951985   0.000000
   10       10.055446   0.000000
   11       10.368467   0.000000
   12       12.243079   0.000000
   13       12.886823   0.000000
   14       18.785058   0.000000
   15       22.121390   0.000000
   16       22.219935   0.000000
   17       23.061393   0.000000
   18       23.732825   0.000000
   19       24.793344   0.000000
   20       26.713726   0.000000
 
  0.1864407E+00  0.0000000E+00  0.0000000E+00  0.5555556E-02
    1      -19.973692   1.000000
    2       -7.908217   1.000000
    3       -7.024061   1.000000
    4       -5.601177   1.000000
    5        3.013687   0.000000
    6        4.600419   0.000000
    7        5.778566   0.000000
    8        7.135066   0.000000
    9        7.752583   0.000000
   10       10.300175   0.000000
   11       10.459996   0.000000
   12       12.338262   0.000000
   13       13.024002   0.000000
   14       18.777898   0.000000
   15       22.013034   0.000000
   16       22.185490   0.000000
   17       23.005793   0.000000
   18       23.566202   0.000000
   19       24.548704   0.000000
   20       26.330642   0.000000
 
  0.1949153E+00  0.0000000E+00  0.0000000E+00  0.5555556E-02
    1      -19.897700   1.000000
    2       -7.818665   1.000000
    3       -7.234038   1.000000
    4       -5.693119   1.000000
    5        3.118060   0.000000
    6        4.702252   0.000000
    7        5.880211   0.000000
    8        7.111260   0.000000
    9        7.546048   0.000000
   10       10.551722   0.000000
   11       10.555341   0.000000
   12       12.437794   0.000000
   13       13.163764   0.000000
   14       18.758239   0.000000
   15       21.822612   0.000000
   16       22.237407   0.000000
   17       22.869948   0.000000
   18       23.403233   0.000000
   19       24.385605   0.000000
   20       25.954620   0.000000
 
  0.2033898E+00  0.0000000E+00  0.0000000E+00  0.5555556E-02
    1      -19.818420   1.000000
    2       -7.725386   1.000000
    3       -7.447680   1.000000
    4       -5.785109   1.000000
    5        3.227024   0.000000
    6        4.808162   0.000000
    7        5.985812   0.000000
    8        7.085802   0.000000
    9        7.335084   0.000000
   10       10.654604   0.000000
   11       10.808457   0.000000
   12       12.541426   0.000000
   13       13.302305   0.000000
   14       18.724470   0.000000
   15       21.650075   0.000000
   16       22.238214   0.000000
   17       22.698167   0.000000
   18       23.244148   0.000000
   19       24.278835   0.000000
   20       25.582270   0.000000
 
  0.2118644E+00  0.0000000E+00  0.0000000E+00  0.5555556E-02
    1      -19.735832   1.000000
    2       -7.663271   1.000000
    3       -7.628416   1.000000
    4       -5.876121   1.000000
    5        3.340620   0.000000
    6        4.917917   0.000000
    7        6.095198   0.000000
    8        7.059972   0.000000
    9        7.120681   0.000000
   10       10.757740   0.000000
   11       11.071843   0.000000
   12       12.649443   0.000000
   13       13.445850   0.000000
   14       18.674855   0.000000
   15       21.495775   0.000000
   16       22.095946   0.000000
   17       22.613859   0.000000
   18       23.089058   0.000000
   19       24.183774   0.000000
   20       25.221091   0.000000
 
  0.2203390E+00  0.0000000E+00  0.0000000E+00  0.5555556E-02
    1      -19.649969   1.000000
    2       -7.881268   1.000000
    3       -7.528016   1.000000
    4       -5.966598   1.000000
    5        3.458806   0.000000
    6        5.031031   0.000000
    7        6.207764   0.000000
    8        6.901964   0.000000
    9        7.033836   0.000000
   10       10.864319   0.000000
   11       11.337994   0.000000
   12       12.761627   0.000000
   13       13.589100   0.000000
   14       18.607145   0.000000
   15       21.358997   0.000000
   16       21.814252   0.000000
   17       22.635640   0.000000
   18       22.937905   0.000000
   19       24.053957   0.000000
   20       24.872012   0.000000
 
  0.2288136E+00  0.0000000E+00  0.0000000E+00  0.5555556E-02
    1      -19.560835   1.000000
    2       -8.101202   1.000000
    3       -7.423818   1.000000
    4       -6.055898   1.000000
    5        3.581599   0.000000
    6        5.146909   0.000000
    7        6.322651   0.000000
    8        6.683018   0.000000
    9        7.009123   0.000000
   10       10.974974   0.000000
   11       11.611072   0.000000
   12       12.878053   0.000000
   13       13.732607   0.000000
   14       18.522690   0.000000
   15       21.238120   0.000000
   16       21.479346   0.000000
   17       22.691793   0.000000
   18       22.791010   0.000000
   19       23.869354   0.000000
   20       24.537954   0.000000
 
  0.2372881E+00  0.0000000E+00  0.0000000E+00  0.5555556E-02
    1      -19.468452   1.000000
    2       -8.323083   1.000000
    3       -7.316022   1.000000
    4       -6.144352   1.000000
    5        3.708976   0.000000
    6        5.263831   0.000000
    7        6.437931   0.000000
    8        6.464328   0.000000
    9        6.988529   0.000000
   10       11.089322   0.000000
   11       11.886811   0.000000
   12       12.998654   0.000000
   13       13.873302   0.000000
   14       18.420832   0.000000
   15       21.126114   0.000000
   16       21.129834   0.000000
   17       22.648299   0.000000
   18       22.749938   0.000000
   19       23.640074   0.000000
   20       24.221978   0.000000
 
  0.2457627E+00  0.0000000E+00  0.0000000E+00  0.5555556E-02
    1      -19.372838   1.000000
    2       -8.546332   1.000000
    3       -7.204814   1.000000
    4       -6.231209   1.000000
    5        3.840913   0.000000
    6        5.377504   0.000000
    7        6.250402   0.000000
    8        6.548813   0.000000
    9        6.975034   0.000000
   10       11.207164   0.000000
   11       12.167851   0.000000
   12       13.123130   0.000000
   13       14.008792   0.000000
   14       18.302406   0.000000
   15       20.765537   0.000000
   16       21.029386   0.000000
   17       22.509827   0.000000
   18       22.779585   0.000000
   19       23.402995   0.000000
   20       23.927746   0.000000
 
  0.2542373E+00  0.0000000E+00  0.0000000E+00  0.5555556E-02
    1      -19.273990   1.000000
    2       -8.770396   1.000000
    3       -7.090196   1.000000
    4       -6.316421   1.000000
    5        3.977437   0.000000
    6        5.473988   0.000000
    7        6.055991   0.000000
    8        6.644505   0.000000
    9        6.981037   0.000000
   10       11.328473   0.000000
   11       12.452313   0.000000
   12       13.251892   0.000000
   13       14.142952   0.000000
   14       18.169058   0.000000
   15       20.405648   0.000000
   16       20.930992   0.000000
   17       22.375652   0.000000
   18       22.712520   0.000000
   19       23.244026   0.000000
   20       23.659406   0.000000
 
  0.2627119E+00  0.0000000E+00  0.0000000E+00  0.5555556E-02
    1      -19.171943   1.000000
    2       -8.995296   1.000000
    3       -6.972202   1.000000
    4       -6.399866   1.000000
    5        4.118498   0.000000
    6        5.501469   0.000000
    7        5.932985   0.000000
    8        6.705349   0.000000
    9        7.026335   0.000000
   10       11.453088   0.000000
   11       12.743288   0.000000
   12       13.384601   0.000000
   13       14.270870   0.000000
   14       18.022315   0.000000
   15       20.049345   0.000000
   16       20.828198   0.000000
   17       22.245812   0.000000
   18       22.496695   0.000000
   19       23.223615   0.000000
   20       23.421337   0.000000
 
  0.2711864E+00  0.0000000E+00  0.0000000E+00  0.5555556E-02
    1      -19.066699   1.000000
    2       -9.220519   1.000000
    3       -6.850930   1.000000
    4       -6.481442   1.000000
    5        4.264130   0.000000
    6        5.389073   0.000000
    7        5.953382   0.000000
    8        6.724681   0.000000
    9        7.118572   0.000000
   10       11.581047   0.000000
   11       13.033265   0.000000
   12       13.521408   0.000000
   13       14.393028   0.000000
   14       17.864687   0.000000
   15       19.699887   0.000000
   16       20.714768   0.000000
   17       22.120331   0.000000
   18       22.206376   0.000000
   19       23.217486   0.000000
   20       23.275627   0.000000
 
  0.2796610E+00  0.0000000E+00  0.0000000E+00  0.5555556E-02
    1      -18.958312   1.000000
    2       -9.446449   1.000000
    3       -6.726667   1.000000
    4       -6.561077   1.000000
    5        4.414204   0.000000
    6        5.193760   0.000000
    7        6.059038   0.000000
    8        6.715843   0.000000
    9        7.241573   0.000000
   10       11.711779   0.000000
   11       13.326560   0.000000
   12       13.661755   0.000000
   13       14.501727   0.000000
   14       17.696468   0.000000
   15       19.358380   0.000000
   16       20.585742   0.000000
   17       21.892055   0.000000
   18       21.999201   0.000000
   19       23.050330   0.000000
   20       23.349577   0.000000
 
  0.2881356E+00  0.0000000E+00  0.0000000E+00  0.5555556E-02
    1      -18.846773   1.000000
    2       -9.672573   1.000000
    3       -6.638848   1.000000
    4       -6.599283   1.000000
    5        4.568814   0.000000
    6        4.972952   0.000000
    7        6.193602   0.000000
    8        6.695868   0.000000
    9        7.381285   0.000000
   10       11.845465   0.000000
   11       13.617849   0.000000
   12       13.805916   0.000000
   13       14.594983   0.000000
   14       17.519749   0.000000
   15       19.027789   0.000000
   16       20.439011   0.000000
   17       21.574778   0.000000
   18       21.882512   0.000000
   19       22.920042   0.000000
   20       23.431647   0.000000
 
  0.2966102E+00  0.0000000E+00  0.0000000E+00  0.5555556E-02
    1      -18.732102   1.000000
    2       -9.898387   1.000000
    3       -6.714085   1.000000
    4       -6.468963   1.000000
    5        4.727894   0.000000
    6        4.743231   0.000000
    7        6.341069   0.000000
    8        6.670769   0.000000
    9        7.531177   0.000000
   10       11.981769   0.000000
   11       13.912214   0.000000
   12       13.953439   0.000000
   13       14.672415   0.000000
   14       17.335407   0.000000
   15       18.710247   0.000000
   16       20.274889   0.000000
   17       21.261518   0.000000
   18       21.770278   0.000000
   19       22.823947   0.000000
   20       23.515593   0.000000
 
  0.3050847E+00  0.0000000E+00  0.0000000E+00  0.5555556E-02
    1      -18.614333   1.000000
    2      -10.123893   1.000000
    3       -6.786952   1.000000
    4       -6.335846   1.000000
    5        4.509600   0.000000
    6        4.891385   0.000000
    7        6.496657   0.000000
    8        6.643390   0.000000
    9        7.688511   0.000000
   10       12.120422   0.000000
   11       14.103762   0.000000
   12       14.207043   0.000000
   13       14.728658   0.000000
   14       17.144215   0.000000
   15       18.407887   0.000000
   16       20.096196   0.000000
   17       20.957304   0.000000
   18       21.662509   0.000000
   19       22.756811   0.000000
   20       23.597516   0.000000
 
  0.3135593E+00  0.0000000E+00  0.0000000E+00  0.5555556E-02
    1      -18.493507   1.000000
    2      -10.349345   1.000000
    3       -6.857452   1.000000
    4       -6.200192   1.000000
    5        4.271739   0.000000
    6        5.059197   0.000000
    7        6.615624   0.000000
    8        6.658532   0.000000
    9        7.851985   0.000000
   10       12.261052   0.000000
   11       14.254907   0.000000
   12       14.501469   0.000000
   13       14.755577   0.000000
   14       16.946463   0.000000
   15       18.121459   0.000000
   16       19.906958   0.000000
   17       20.665147   0.000000
   18       21.559199   0.000000
   19       22.711365   0.000000
   20       23.673961   0.000000
 
  0.3220339E+00  0.0000000E+00  0.0000000E+00  0.5555556E-02
    1      -18.369636   1.000000
    2      -10.573665   1.000000
    3       -6.925280   1.000000
    4       -6.061975   1.000000
    5        4.035860   0.000000
    6        5.231265   0.000000
    7        6.587378   0.000000
    8        6.825879   0.000000
    9        8.021016   0.000000
   10       12.403346   0.000000
   11       14.403623   0.000000
   12       14.762154   0.000000
   13       14.795394   0.000000
   14       16.743205   0.000000
   15       17.854690   0.000000
   16       19.712255   0.000000
   17       20.390974   0.000000
   18       21.460414   0.000000
   19       22.680674   0.000000
   20       23.742752   0.000000
 
  0.3305085E+00  0.0000000E+00  0.0000000E+00  0.5555556E-02
    1      -18.242758   1.000000
    2      -10.796854   1.000000
    3       -6.990278   1.000000
    4       -5.921555   1.000000
    5        3.799446   0.000000
    6        5.407392   0.000000
    7        6.559785   0.000000
    8        6.998234   0.000000
    9        8.195208   0.000000
   10       12.546734   0.000000
   11       14.528914   0.000000
   12       14.760711   0.000000
   13       15.091043   0.000000
   14       16.534658   0.000000
   15       17.606924   0.000000
   16       19.516029   0.000000
   17       20.138149   0.000000
   18       21.366177   0.000000
   19       22.656425   0.000000
   20       23.800068   0.000000
 
  0.3389831E+00  0.0000000E+00  0.0000000E+00  0.5555556E-02
    1      -18.112925   1.000000
    2      -11.019315   1.000000
    3       -7.052722   1.000000
    4       -5.779035   1.000000
    5        3.564856   0.000000
    6        5.587235   0.000000
    7        6.533487   0.000000
    8        7.175329   0.000000
    9        8.374334   0.000000
   10       12.690586   0.000000
   11       14.551760   0.000000
   12       14.825682   0.000000
   13       15.381326   0.000000
   14       16.321383   0.000000
   15       17.375991   0.000000
   16       19.321937   0.000000
   17       19.910968   0.000000
   18       21.276437   0.000000
   19       22.631344   0.000000
   20       23.840549   0.000000
 
  0.3474576E+00  0.0000000E+00  0.0000000E+00  0.5555556E-02
    1      -17.980178   1.000000
    2      -11.240582   1.000000
    3       -7.112352   1.000000