   2   2   1   0
  0.2621357E+02  0.2460440E-09  0.2460440E-09  0.1000000E-08  0.5000000E-15
  1.000000000000000E-004
  CAR 
                                         
     13.51062617    -22.42892620 2001     -1.22136684      1.00000000
    -22.429  0.0000E+00  0.0000E+00
    -22.411  0.0000E+00  0.0000E+00
    -22.393  0.0000E+00  0.0000E+00
    -22.375  0.0000E+00  0.0000E+00
    -22.357  0.0000E+00  0.0000E+00
    -22.339  0.0000E+00  0.0000E+00
    -22.321  0.0000E+00  0.0000E+00
    -22.303  0.0000E+00  0.0000E+00
    -22.285  0.0000E+00  0.0000E+00
    -22.267  0.0000E+00  0.0000E+00
    -22.249  0.0000E+00  0.0000E+00
    -22.231  0.0000E+00  0.0000E+00
    -22.213  0.0000E+00  0.0000E+00
    -22.195  0.0000E+00  0.0000E+00
    -22.177  0.0000E+00  0.0000E+00
    -22.159  0.0000E+00  0.0000E+00
    -22.141  0.0000E+00  0.0000E+00
    -22.123  0.0000E+00  0.0000E+00
    -22.105  0.0000E+00  0.0000E+00
    -22.088  0.0000E+00  0.0000E+00
    -22.070  0.0000E+00  0.0000E+00
    -22.052  0.0000E+00  0.0000E+00
    -22.034  0.0000E+00  0.0000E+00
    -22.016  0.0000E+00  0.0000E+00
    -21.998  0.0000E+00  0.0000E+00
    -21.980  0.0000E+00  0.0000E+00
    -21.962  0.0000E+00  0.0000E+00
    -21.944  0.0000E+00  0.0000E+00
    -21.926  0.0000E+00  0.0000E+00
    -21.908  0.0000E+00  0.0000E+00
    -21.890  0.0000E+00  0.0000E+00
    -21.872  0.0000E+00  0.0000E+00
    -21.854  0.0000E+00  0.0000E+00
    -21.836  0.0000E+00  0.0000E+00
    -21.818  0.0000E+00  0.0000E+00
    -21.800  0.0000E+00  0.0000E+00
    -21.782  0.0000E+00  0.0000E+00
    -21.764  0.0000E+00  0.0000E+00
    -21.746  0.0000E+00  0.0000E+00
    -21.728  0.0000E+00  0.0000E+00
    -21.710  0.0000E+00  0.0000E+00
    -21.692  0.0000E+00  0.0000E+00
    -21.674  0.0000E+00  0.0000E+00
    -21.656  0.0000E+00  0.0000E+00
    -21.638  0.0000E+00  0.0000E+00
    -21.620  0.0000E+00  0.0000E+00
    -21.602  0.0000E+00  0.0000E+00
    -21.584  0.0000E+00  0.0000E+00
    -21.566  0.0000E+00  0.0000E+00
    -21.548  0.0000E+00  0.0000E+00
    -21.530  0.0000E+00  0.0000E+00
    -21.512  0.0000E+00  0.0000E+00
    -21.494  0.0000E+00  0.0000E+00
    -21.477  0.0000E+00  0.0000E+00
    -21.459  0.0000E+00  0.0000E+00
    -21.441  0.0000E+00  0.0000E+00
    -21.423  0.0000E+00  0.0000E+00
    -21.405  0.0000E+00  0.0000E+00
    -21.387  0.0000E+00  0.0000E+00
    -21.369  0.0000E+00  0.0000E+00
    -21.351  0.0000E+00  0.0000E+00
    -21.333  0.0000E+00  0.0000E+00
    -21.315  0.0000E+00  0.0000E+00
    -21.297  0.0000E+00  0.0000E+00
    -21.279  0.0000E+00  0.0000E+00
    -21.261  0.0000E+00  0.0000E+00
    -21.243  0.0000E+00  0.0000E+00
    -21.225  0.0000E+00  0.0000E+00
    -21.207  0.0000E+00  0.0000E+00
    -21.189  0.0000E+00  0.0000E+00
    -21.171  0.0000E+00  0.0000E+00
    -21.153  0.0000E+00  0.0000E+00
    -21.135  0.0000E+00  0.0000E+00
    -21.117  0.0000E+00  0.0000E+00
    -21.099  0.0000E+00  0.0000E+00
    -21.081  0.1236E-14  0.2220E-16
    -21.063  0.6508E-13  0.1192E-14
    -21.045  0.2878E-11  0.5291E-13
    -21.027  0.9868E-10  0.1826E-11
    -21.009  0.2626E-08  0.4902E-10
    -20.991  0.5428E-07  0.1024E-08
    -20.973  0.8722E-06  0.1670E-07
    -20.955  0.1090E-04  0.2126E-06
    -20.937  0.1062E-03  0.2121E-05
    -20.919  0.8065E-03  0.1661E-04
    -20.901  0.4785E-02  0.1026E-03
    -20.884  0.2222E-01  0.5019E-03
    -20.866  0.8092E-01  0.1956E-02
    -20.848  0.2317E+00  0.6120E-02
    -20.830  0.5238E+00  0.1553E-01
    -20.812  0.9393E+00  0.3241E-01
    -20.794  0.1350E+01  0.5667E-01
    -20.776  0.1583E+01  0.8512E-01
    -20.758  0.1570E+01  0.1133E+00
    -20.740  0.1394E+01  0.1384E+00
    -20.722  0.1178E+01  0.1595E+00
    -20.704  0.9813E+00  0.1772E+00
    -20.686  0.8160E+00  0.1918E+00
    -20.668  0.6995E+00  0.2044E+00
    -20.650  0.6455E+00  0.2160E+00
    -20.632  0.6347E+00  0.2274E+00
    -20.614  0.6291E+00  0.2387E+00
    -20.596  0.6039E+00  0.2496E+00
    -20.578  0.5616E+00  0.2597E+00
    -20.560  0.5226E+00  0.2691E+00
    -20.542  0.4960E+00  0.2780E+00
    -20.524  0.4633E+00  0.2863E+00
    -20.506  0.4110E+00  0.2937E+00
    -20.488  0.3665E+00  0.3003E+00
    -20.470  0.3715E+00  0.3069E+00
    -20.452  0.4258E+00  0.3146E+00
    -20.434  0.4871E+00  0.3233E+00
    -20.416  0.5207E+00  0.3327E+00
    -20.398  0.5200E+00  0.3421E+00
    -20.380  0.4797E+00  0.3507E+00
    -20.362  0.3908E+00  0.3577E+00
    -20.344  0.2700E+00  0.3625E+00
    -20.326  0.1651E+00  0.3655E+00
    -20.308  0.1241E+00  0.3677E+00
    -20.291  0.1688E+00  0.3708E+00
    -20.273  0.2884E+00  0.3760E+00
    -20.255  0.4411E+00  0.3839E+00
    -20.237  0.5675E+00  0.3941E+00
    -20.219  0.6179E+00  0.4052E+00
    -20.201  0.5734E+00  0.4155E+00
    -20.183  0.4499E+00  0.4236E+00
    -20.165  0.2931E+00  0.4288E+00
    -20.147  0.1552E+00  0.4316E+00
    -20.129  0.6630E-01  0.4328E+00
    -20.111  0.2576E-01  0.4333E+00
    -20.093  0.2255E-01  0.4337E+00
    -20.075  0.5860E-01  0.4347E+00
    -20.057  0.1540E+00  0.4375E+00
    -20.039  0.3235E+00  0.4433E+00
    -20.021  0.5346E+00  0.4529E+00
    -20.003  0.6950E+00  0.4654E+00
    -19.985  0.7109E+00  0.4782E+00
    -19.967  0.5722E+00  0.4885E+00
    -19.949  0.3623E+00  0.4950E+00
    -19.931  0.1803E+00  0.4982E+00
    -19.913  0.7049E-01  0.4995E+00
    -19.895  0.2164E-01  0.4999E+00
    -19.877  0.5447E-02  0.5000E+00
    -19.859  0.2568E-02  0.5000E+00
    -19.841  0.7922E-02  0.5002E+00
    -19.823  0.2982E-01  0.5007E+00
    -19.805  0.8982E-01  0.5023E+00
    -19.787  0.2135E+00  0.5062E+00
    -19.769  0.4012E+00  0.5134E+00
    -19.751  0.5976E+00  0.5241E+00
    -19.733  0.7069E+00  0.5368E+00
    -19.715  0.6643E+00  0.5487E+00
    -19.698  0.4959E+00  0.5577E+00
    -19.680  0.2937E+00  0.5629E+00
    -19.662  0.1377E+00  0.5654E+00
    -19.644  0.5098E-01  0.5663E+00
    -19.626  0.1488E-01  0.5666E+00
    -19.608  0.3523E-02  0.5667E+00
    -19.590  0.1405E-02  0.5667E+00
    -19.572  0.4177E-02  0.5668E+00
    -19.554  0.1636E-01  0.5671E+00
    -19.536  0.5076E-01  0.5680E+00
    -19.518  0.1228E+00  0.5702E+00
    -19.500  0.2324E+00  0.5743E+00
    -19.482  0.3490E+00  0.5806E+00
    -19.464  0.4286E+00  0.5883E+00
    -19.446  0.4579E+00  0.5965E+00
    -19.428  0.4616E+00  0.6048E+00
    -19.410  0.4557E+00  0.6130E+00
    -19.392  0.4191E+00  0.6206E+00
    -19.374  0.3310E+00  0.6265E+00
    -19.356  0.2124E+00  0.6303E+00
    -19.338  0.1077E+00  0.6323E+00
    -19.320  0.4274E-01  0.6330E+00
    -19.302  0.1330E-01  0.6333E+00
    -19.284  0.3856E-02  0.6333E+00
    -19.266  0.4214E-02  0.6334E+00
    -19.248  0.1485E-01  0.6337E+00
    -19.230  0.4671E-01  0.6345E+00
    -19.212  0.1146E+00  0.6366E+00
    -19.194  0.2186E+00  0.6405E+00
    -19.176  0.3236E+00  0.6463E+00
    -19.158  0.3725E+00  0.6530E+00
    -19.140  0.3350E+00  0.6590E+00
    -19.122  0.2426E+00  0.6634E+00
    -19.105  0.1643E+00  0.6663E+00
    -19.087  0.1544E+00  0.6691E+00
    -19.069  0.2194E+00  0.6731E+00
    -19.051  0.3151E+00  0.6787E+00
    -19.033  0.3712E+00  0.6854E+00
    -19.015  0.3429E+00  0.6916E+00
    -18.997  0.2463E+00  0.6960E+00
    -18.979  0.1375E+00  0.6985E+00
    -18.961  0.5973E-01  0.6995E+00
    -18.943  0.2105E-01  0.6999E+00
    -18.925  0.1022E-01  0.7001E+00
    -18.907  0.2032E-01  0.7005E+00
    -18.889  0.5789E-01  0.7015E+00
    -18.871  0.1343E+00  0.7039E+00
    -18.853  0.2426E+00  0.7083E+00
    -18.835  0.3404E+00  0.7144E+00
    -18.817  0.3709E+00  0.7210E+00
    -18.799  0.3138E+00  0.7267E+00
    -18.781  0.2063E+00  0.7304E+00
    -18.763  0.1054E+00  0.7323E+00
    -18.745  0.4281E-01  0.7331E+00
    -18.727  0.1828E-01  0.7334E+00
    -18.709  0.2380E-01  0.7338E+00
    -18.691  0.6176E-01  0.7349E+00
    -18.673  0.1403E+00  0.7374E+00
    -18.655  0.2495E+00  0.7419E+00
    -18.637  0.3447E+00  0.7481E+00
    -18.619  0.3698E+00  0.7548E+00
    -18.601  0.3082E+00  0.7603E+00
    -18.583  0.1999E+00  0.7639E+00
    -18.565  0.1027E+00  0.7657E+00
    -18.547  0.4977E-01  0.7666E+00
    -18.529  0.4777E-01  0.7675E+00
    -18.512  0.9672E-01  0.7692E+00
    -18.494  0.1912E+00  0.7727E+00
    -18.476  0.3006E+00  0.7781E+00
    -18.458  0.3679E+00  0.7847E+00
    -18.440  0.3498E+00  0.7910E+00
    -18.422  0.2582E+00  0.7956E+00
    -18.404  0.1480E+00  0.7983E+00
    -18.386  0.6591E-01  0.7995E+00
    -18.368  0.2278E-01  0.7999E+00
    -18.350  0.6117E-02  0.8000E+00
    -18.332  0.1309E-02  0.8000E+00
    -18.314  0.4810E-03  0.8000E+00
    -18.296  0.1665E-02  0.8000E+00
    -18.278  0.7576E-02  0.8002E+00
    -18.260  0.2717E-01  0.8007E+00
    -18.242  0.7566E-01  0.8020E+00
    -18.224  0.1636E+00  0.8050E+00
    -18.206  0.2747E+00  0.8099E+00
    -18.188  0.3586E+00  0.8163E+00
    -18.170  0.3648E+00  0.8229E+00
    -18.152  0.2948E+00  0.8282E+00
    -18.134  0.2070E+00  0.8319E+00
    -18.116  0.1701E+00  0.8350E+00
    -18.098  0.2118E+00  0.8388E+00
    -18.080  0.3008E+00  0.8442E+00
    -18.062  0.3672E+00  0.8508E+00
    -18.044  0.3550E+00  0.8572E+00
    -18.026  0.2675E+00  0.8620E+00
    -18.008  0.1567E+00  0.8648E+00
    -17.990  0.7125E-01  0.8661E+00
    -17.972  0.2516E-01  0.8665E+00
    -17.954  0.6896E-02  0.8666E+00
    -17.936  0.1467E-02  0.8667E+00
    -17.919  0.2423E-03  0.8667E+00
    -17.901  0.3107E-04  0.8667E+00
    -17.883  0.3486E-05  0.8667E+00
    -17.865  0.5189E-05  0.8667E+00
    -17.847  0.4742E-04  0.8667E+00
    -17.829  0.3520E-03  0.8667E+00
    -17.811  0.2029E-02  0.8667E+00
    -17.793  0.9082E-02  0.8669E+00
    -17.775  0.3159E-01  0.8674E+00
    -17.757  0.8557E-01  0.8690E+00
    -17.739  0.1813E+00  0.8722E+00
    -17.721  0.3038E+00  0.8777E+00
    -17.703  0.4122E+00  0.8851E+00
    -17.685  0.4742E+00  0.8936E+00
    -17.667  0.4937E+00  0.9025E+00
    -17.649  0.4868E+00  0.9112E+00
    -17.631  0.4457E+00  0.9193E+00
    -17.613  0.3557E+00  0.9256E+00
    -17.595  0.2338E+00  0.9298E+00
    -17.577  0.1225E+00  0.9320E+00
    -17.559  0.5040E-01  0.9330E+00
    -17.541  0.1617E-01  0.9332E+00
    -17.523  0.4036E-02  0.9333E+00
    -17.505  0.7823E-03  0.9333E+00
    -17.487  0.1177E-03  0.9333E+00
    -17.469  0.1374E-04  0.9333E+00
    -17.451  0.1245E-05  0.9333E+00
    -17.433  0.8743E-07  0.9333E+00
    -17.415  0.4982E-08  0.9333E+00
    -17.397  0.5671E-08  0.9333E+00
    -17.379  0.1049E-06  0.9333E+00
    -17.361  0.1559E-05  0.9333E+00
    -17.343  0.1799E-04  0.9333E+00
    -17.326  0.1611E-03  0.9333E+00
    -17.308  0.1120E-02  0.9334E+00
    -17.290  0.6042E-02  0.9335E+00
    -17.272  0.2532E-01  0.9339E+00
    -17.254  0.8240E-01  0.9354E+00
    -17.236  0.2083E+00  0.9391E+00
    -17.218  0.4092E+00  0.9465E+00
    -17.200  0.6245E+00  0.9577E+00
    -17.182  0.7405E+00  0.9710E+00
    -17.164  0.6824E+00  0.9833E+00
    -17.146  0.4886E+00  0.9921E+00
    -17.128  0.2718E+00  0.9970E+00
    -17.110  0.1175E+00  0.9991E+00
    -17.092  0.3944E-01  0.9998E+00
    -17.074  0.1029E-01  0.1000E+01
    -17.056  0.2084E-02  0.1000E+01
    -17.038  0.3277E-03  0.1000E+01
    -17.020  0.4000E-04  0.1000E+01
    -17.002  0.3790E-05  0.1000E+01
    -16.984  0.2787E-06  0.1000E+01
    -16.966  0.1589E-07  0.1000E+01
    -16.948  0.7601E-09  0.1000E+01
    -16.930  0.1512E-08  0.1000E+01
    -16.912  0.3007E-07  0.1000E+01
    -16.894  0.4712E-06  0.1000E+01
    -16.876  0.5726E-05  0.1000E+01
    -16.858  0.5397E-04  0.1000E+01
    -16.840  0.3946E-03  0.1000E+01
    -16.822  0.2239E-02  0.1000E+01
    -16.804  0.9859E-02  0.1000E+01
    -16.786  0.3371E-01  0.1001E+01
    -16.768  0.8953E-01  0.1002E+01
    -16.750  0.1851E+00  0.1006E+01
    -16.733  0.2991E+00  0.1011E+01
    -16.715  0.3835E+00  0.1018E+01
    -16.697  0.4065E+00  0.1025E+01
    -16.679  0.3912E+00  0.1032E+01
    -16.661  0.3874E+00  0.1039E+01
    -16.643  0.4039E+00  0.1047E+01
    -16.625  0.3962E+00  0.1054E+01
    -16.607  0.3279E+00  0.1060E+01
    -16.589  0.2169E+00  0.1063E+01
    -16.571  0.1125E+00  0.1066E+01
    -16.553  0.4544E-01  0.1066E+01
    -16.535  0.1426E-01  0.1067E+01
    -16.517  0.3477E-02  0.1067E+01
    -16.499  0.6579E-03  0.1067E+01
    -16.481  0.9660E-04  0.1067E+01
    -16.463  0.1100E-04  0.1067E+01
    -16.445  0.9743E-06  0.1067E+01
    -16.427  0.1053E-06  0.1067E+01
    -16.409  0.5966E-06  0.1067E+01
    -16.391  0.7047E-05  0.1067E+01
    -16.373  0.6495E-04  0.1067E+01
    -16.355  0.4644E-03  0.1067E+01
    -16.337  0.2577E-02  0.1067E+01
    -16.319  0.1110E-01  0.1067E+01
    -16.301  0.3709E-01  0.1068E+01
    -16.283  0.9624E-01  0.1069E+01
    -16.265  0.1939E+00  0.1073E+01
    -16.247  0.3034E+00  0.1078E+01
    -16.229  0.3687E+00  0.1085E+01
    -16.211  0.3479E+00  0.1091E+01
    -16.193  0.2551E+00  0.1096E+01
    -16.175  0.1457E+00  0.1098E+01
    -16.157  0.6754E-01  0.1100E+01
    -16.140  0.3604E-01  0.1100E+01
    -16.122  0.5071E-01  0.1101E+01
    -16.104  0.1124E+00  0.1103E+01
    -16.086  0.2143E+00  0.1107E+01
    -16.068  0.3202E+00  0.1113E+01
    -16.050  0.3717E+00  0.1119E+01
    -16.032  0.3352E+00  0.1125E+01
    -16.014  0.2347E+00  0.1130E+01
    -15.996  0.1277E+00  0.1132E+01
    -15.978  0.5391E-01  0.1133E+01
    -15.960  0.1767E-01  0.1133E+01
    -15.942  0.4500E-02  0.1133E+01
    -15.924  0.9085E-03  0.1133E+01
    -15.906  0.3006E-03  0.1133E+01
    -15.888  0.1063E-02  0.1133E+01
    -15.870  0.5176E-02  0.1133E+01
    -15.852  0.1985E-01  0.1134E+01
    -15.834  0.5911E-01  0.1135E+01
    -15.816  0.1367E+00  0.1137E+01
    -15.798  0.2454E+00  0.1142E+01
    -15.780  0.3422E+00  0.1148E+01
    -15.762  0.3705E+00  0.1155E+01
    -15.744  0.3116E+00  0.1160E+01
    -15.726  0.2035E+00  0.1164E+01
    -15.708  0.1032E+00  0.1166E+01
    -15.690  0.4063E-01  0.1166E+01
    -15.672  0.1248E-01  0.1167E+01
    -15.654  0.3425E-02  0.1167E+01
    -15.636  0.3645E-02  0.1167E+01
    -15.618  0.1579E-01  0.1167E+01
    -15.600  0.6222E-01  0.1168E+01
    -15.582  0.1930E+00  0.1172E+01
    -15.564  0.4712E+00  0.1180E+01
    -15.547  0.9123E+00  0.1196E+01
    -15.529  0.1418E+01  0.1222E+01
    -15.511  0.1809E+01  0.1254E+01
    -15.493  0.1957E+01  0.1290E+01
    -15.475  0.1875E+01  0.1323E+01
    -15.457  0.1661E+01  0.1353E+01
    -15.439  0.1398E+01  0.1378E+01
    -15.421  0.1139E+01  0.1399E+01
    -15.403  0.9219E+00  0.1415E+01
    -15.385  0.7685E+00  0.1429E+01
    -15.367  0.6743E+00  0.1441E+01
    -15.349  0.6165E+00  0.1452E+01
    -15.331  0.5766E+00  0.1463E+01
    -15.313  0.5494E+00  0.1473E+01
    -15.295  0.5288E+00  0.1482E+01
    -15.277  0.5040E+00  0.1491E+01
    -15.259  0.4789E+00  0.1500E+01
    -15.241  0.4680E+00  0.1508E+01
    -15.223  0.4641E+00  0.1516E+01
    -15.205  0.4447E+00  0.1524E+01
    -15.187  0.4146E+00  0.1532E+01
    -15.169  0.4045E+00  0.1539E+01
    -15.151  0.4182E+00  0.1547E+01
    -15.133  0.4186E+00  0.1554E+01
    -15.115  0.3845E+00  0.1561E+01
    -15.097  0.3482E+00  0.1567E+01
    -15.079  0.3524E+00  0.1574E+01
    -15.061  0.3863E+00  0.1581E+01
    -15.043  0.3954E+00  0.1588E+01
    -15.025  0.3537E+00  0.1594E+01
    -15.007  0.3008E+00  0.1600E+01
    -14.989  0.2949E+00  0.1605E+01
    -14.971  0.3422E+00  0.1611E+01
    -14.953  0.3886E+00  0.1618E+01
    -14.936  0.3869E+00  0.1625E+01
    -14.918  0.3612E+00  0.1631E+01
    -14.900  0.3889E+00  0.1638E+01
    -14.882  0.5120E+00  0.1648E+01
    -14.864  0.6711E+00  0.1660E+01
    -14.846  0.7437E+00  0.1673E+01
    -14.828  0.6603E+00  0.1685E+01
    -14.810  0.4734E+00  0.1693E+01
    -14.792  0.3047E+00  0.1699E+01
    -14.774  0.2408E+00  0.1703E+01
    -14.756  0.2802E+00  0.1708E+01
    -14.738  0.3515E+00  0.1715E+01
    -14.720  0.3732E+00  0.1721E+01
    -14.702  0.3164E+00  0.1727E+01
    -14.684  0.2224E+00  0.1731E+01
    -14.666  0.1611E+00  0.1734E+01
    -14.648  0.1759E+00  0.1737E+01
    -14.630  0.2567E+00  0.1742E+01
    -14.612  0.3469E+00  0.1748E+01
    -14.594  0.3852E+00  0.1755E+01
    -14.576  0.3700E+00  0.1761E+01
    -14.558  0.3893E+00  0.1768E+01
    -14.540  0.5731E+00  0.1779E+01
    -14.522  0.9875E+00  0.1796E+01
    -14.504  0.1540E+01  0.1824E+01
    -14.486  0.2000E+01  0.1860E+01
    -14.468  0.2151E+01  0.1899E+01
    -14.450  0.1965E+01  0.1934E+01
    -14.432  0.1598E+01  0.1963E+01
    -14.414  0.1242E+01  0.1985E+01
    -14.396  0.1007E+01  0.2003E+01
    -14.378  0.9133E+00  0.2020E+01
    -14.360  0.9418E+00  0.2037E+01
    -14.343  0.1054E+01  0.2055E+01
    -14.325  0.1185E+01  0.2077E+01
    -14.307  0.1262E+01  0.2099E+01
    -14.289  0.1248E+01  0.2122E+01
    -14.271  0.1165E+01  0.2143E+01
    -14.253  0.1078E+01  0.2162E+01
    -14.235  0.1044E+01  0.2181E+01
    -14.217  0.1065E+01  0.2200E+01
    -14.199  0.1084E+01  0.2220E+01
    -14.181  0.1050E+01  0.2238E+01
    -14.163  0.9595E+00  0.2256E+01
    -14.145  0.8340E+00  0.2271E+01
    -14.127  0.6903E+00  0.2283E+01
    -14.109  0.5543E+00  0.2293E+01
    -14.091  0.4712E+00  0.2301E+01
    -14.073  0.4748E+00  0.2310E+01
    -14.055  0.5493E+00  0.2320E+01
    -14.037  0.6438E+00  0.2331E+01
    -14.019  0.7160E+00  0.2344E+01
    -14.001  0.7464E+00  0.2358E+01
    -13.983  0.7230E+00  0.2371E+01
    -13.965  0.6410E+00  0.2382E+01
    -13.947  0.5258E+00  0.2392E+01
    -13.929  0.4459E+00  0.2400E+01
    -13.911  0.4850E+00  0.2408E+01
    -13.893  0.6946E+00  0.2421E+01
    -13.875  0.1061E+01  0.2440E+01
    -13.857  0.1487E+01  0.2467E+01
    -13.839  0.1797E+01  0.2499E+01
    -13.821  0.1827E+01  0.2532E+01
    -13.803  0.1558E+01  0.2560E+01
    -13.785  0.1143E+01  0.2580E+01
    -13.767  0.7985E+00  0.2595E+01
    -13.750  0.6692E+00  0.2607E+01
    -13.732  0.7741E+00  0.2621E+01
    -13.714  0.1015E+01  0.2639E+01
    -13.696  0.1243E+01  0.2661E+01
    -13.678  0.1360E+01  0.2686E+01
    -13.660  0.1370E+01  0.2710E+01
    -13.642  0.1319E+01  0.2734E+01
    -13.624  0.1210E+01  0.2756E+01
    -13.606  0.1010E+01  0.2774E+01
    -13.588  0.7235E+00  0.2787E+01
    -13.570  0.4294E+00  0.2795E+01
    -13.552  0.2145E+00  0.2798E+01
    -13.534  0.1161E+00  0.2800E+01
    -13.516  0.1245E+00  0.2803E+01
    -13.498  0.2071E+00  0.2806E+01
    -13.480  0.3112E+00  0.2812E+01
    -13.462  0.3704E+00  0.2819E+01
    -13.444  0.3432E+00  0.2825E+01
    -13.426  0.2470E+00  0.2829E+01
    -13.408  0.1381E+00  0.2832E+01
    -13.390  0.5993E-01  0.2833E+01
    -13.372  0.2020E-01  0.2833E+01
    -13.354  0.5284E-02  0.2833E+01
    -13.336  0.1073E-02  0.2833E+01
    -13.318  0.1691E-03  0.2833E+01
    -13.300  0.2067E-04  0.2833E+01
    -13.282  0.1983E-05  0.2833E+01
    -13.264  0.5095E-06  0.2833E+01
    -13.246  0.4607E-05  0.2833E+01
    -13.228  0.4505E-04  0.2833E+01
    -13.210  0.3441E-03  0.2833E+01
    -13.192  0.2052E-02  0.2833E+01
    -13.174  0.9580E-02  0.2834E+01
    -13.157  0.3512E-01  0.2834E+01
    -13.139  0.1014E+00  0.2836E+01
    -13.121  0.2316E+00  0.2840E+01
    -13.103  0.4201E+00  0.2848E+01
    -13.085  0.6070E+00  0.2859E+01
    -13.067  0.7006E+00  0.2871E+01
    -13.049  0.6467E+00  0.2883E+01
    -13.031  0.4770E+00  0.2891E+01
    -13.013  0.2805E+00  0.2896E+01
    -12.995  0.1312E+00  0.2899E+01
    -12.977  0.4855E-01  0.2900E+01
    -12.959  0.1417E-01  0.2900E+01
    -12.941  0.3252E-02  0.2900E+01
    -12.923  0.5845E-03  0.2900E+01
    -12.905  0.8210E-04  0.2900E+01
    -12.887  0.8993E-05  0.2900E+01
    -12.869  0.7670E-06  0.2900E+01
    -12.851  0.5092E-07  0.2900E+01
    -12.833  0.4040E-08  0.2900E+01
    -12.815  0.2890E-07  0.2900E+01
    -12.797  0.4530E-06  0.2900E+01
    -12.779  0.5526E-05  0.2900E+01
    -12.761  0.5228E-04  0.2900E+01
    -12.743  0.3837E-03  0.2900E+01
    -12.725  0.2185E-02  0.2900E+01
    -12.707  0.9658E-02  0.2900E+01
    -12.689  0.3314E-01  0.2901E+01
    -12.671  0.8826E-01  0.2902E+01
    -12.653  0.1825E+00  0.2906E+01
    -12.635  0.2932E+00  0.2911E+01
    -12.617  0.3656E+00  0.2918E+01
    -12.599  0.3541E+00  0.2924E+01
    -12.581  0.2665E+00  0.2929E+01
    -12.564  0.1563E+00  0.2931E+01
    -12.546  0.7408E-01  0.2933E+01
    -12.528  0.3922E-01  0.2934E+01
    -12.510  0.5246E-01  0.2934E+01
    -12.492  0.1142E+00  0.2937E+01
    -12.474  0.2163E+00  0.2940E+01
    -12.456  0.3217E+00  0.2946E+01
    -12.438  0.3719E+00  0.2953E+01
    -12.420  0.3338E+00  0.2959E+01
    -12.402  0.2328E+00  0.2963E+01
    -12.384  0.1260E+00  0.2965E+01
    -12.366  0.5298E-01  0.2966E+01
    -12.348  0.1729E-01  0.2967E+01
    -12.330  0.4381E-02  0.2967E+01
    -12.312  0.8634E-03  0.2967E+01
    -12.294  0.1511E-03  0.2967E+01
    -12.276  0.1768E-03  0.2967E+01
    -12.258  0.1031E-02  0.2967E+01
    -12.240  0.5100E-02  0.2967E+01
    -12.222  0.1961E-01  0.2967E+01
    -12.204  0.5855E-01  0.2968E+01
    -12.186  0.1357E+00  0.2971E+01
    -12.168  0.2443E+00  0.2975E+01
    -12.150  0.3415E+00  0.2981E+01
    -12.132  0.3707E+00  0.2988E+01
    -12.114  0.3125E+00  0.2993E+01
    -12.096  0.2046E+00  0.2997E+01
    -12.078  0.1040E+00  0.2999E+01
    -12.060  0.4105E-01  0.3000E+01
    -12.042  0.1258E-01  0.3000E+01
    -12.024  0.2993E-02  0.3000E+01
    -12.006  0.5529E-03  0.3000E+01
    -11.988  0.8269E-04  0.3000E+01
    -11.971  0.4636E-04  0.3000E+01
    -11.953  0.3124E-03  0.3000E+01
    -11.935  0.2011E-02  0.3000E+01
    -11.917  0.1010E-01  0.3000E+01
    -11.899  0.3966E-01  0.3001E+01
    -11.881  0.1222E+00  0.3003E+01
    -11.863  0.2975E+00  0.3008E+01
    -11.845  0.5785E+00  0.3019E+01
    -11.827  0.9115E+00  0.3035E+01
    -11.809  0.1183E+01  0.3057E+01
    -11.791  0.1282E+01  0.3080E+01
    -11.773  0.1175E+01  0.3101E+01
    -11.755  0.9302E+00  0.3117E+01
    -11.737  0.6854E+00  0.3130E+01
    -11.719  0.5666E+00  0.3140E+01
    -11.701  0.6075E+00  0.3151E+01
    -11.683  0.7449E+00  0.3164E+01
    -11.665  0.8755E+00  0.3180E+01
    -11.647  0.9111E+00  0.3196E+01
    -11.629  0.8113E+00  0.3211E+01
    -11.611  0.6034E+00  0.3222E+01
    -11.593  0.3675E+00  0.3228E+01
    -11.575  0.1811E+00  0.3232E+01
    -11.557  0.7462E-01  0.3233E+01
    -11.539  0.3797E-01  0.3234E+01
    -11.521  0.5555E-01  0.3235E+01
    -11.503  0.1234E+00  0.3237E+01
    -11.485  0.2345E+00  0.3241E+01
    -11.467  0.3586E+00  0.3247E+01
    -11.449  0.4529E+00  0.3256E+01
    -11.431  0.4983E+00  0.3265E+01
    -11.413  0.5055E+00  0.3274E+01
    -11.395  0.4797E+00  0.3282E+01
    -11.378  0.4079E+00  0.3290E+01
    -11.360  0.2929E+00  0.3295E+01
    -11.342  0.1702E+00  0.3298E+01
    -11.324  0.7876E-01  0.3299E+01
    -11.306  0.3148E-01  0.3300E+01
    -11.288  0.2190E-01  0.3300E+01
    -11.270  0.4657E-01  0.3301E+01
    -11.252  0.1115E+00  0.3303E+01
    -11.234  0.2144E+00  0.3307E+01
    -11.216  0.3217E+00  0.3313E+01
    -11.198  0.3796E+00  0.3320E+01
    -11.180  0.3667E+00  0.3326E+01
    -11.162  0.3328E+00  0.3332E+01
    -11.144  0.3651E+00  0.3339E+01
    -11.126  0.5013E+00  0.3348E+01
    -11.108  0.6747E+00  0.3360E+01
    -11.090  0.7622E+00  0.3374E+01
    -11.072  0.7043E+00  0.3386E+01
    -11.054  0.5662E+00  0.3396E+01
    -11.036  0.4603E+00  0.3405E+01
    -11.018  0.4267E+00  0.3412E+01
    -11.000  0.4164E+00  0.3420E+01
    -10.982  0.3799E+00  0.3427E+01
    -10.964  0.3334E+00  0.3433E+01
    -10.946  0.3256E+00  0.3438E+01
    -10.928  0.3618E+00  0.3445E+01
    -10.910  0.3870E+00  0.3452E+01
    -10.892  0.3475E+00  0.3458E+01
    -10.874  0.2480E+00  0.3463E+01
    -10.856  0.1383E+00  0.3465E+01
    -10.838  0.6001E-01  0.3466E+01
    -10.820  0.2023E-01  0.3467E+01
    -10.802  0.5293E-02  0.3467E+01
    -10.785  0.1075E-02  0.3467E+01
    -10.767  0.1736E-03  0.3467E+01
    -10.749  0.6129E-04  0.3467E+01
    -10.731  0.3100E-03  0.3467E+01
    -10.713  0.1819E-02  0.3467E+01
    -10.695  0.8375E-02  0.3467E+01
    -10.677  0.3016E-01  0.3467E+01
    -10.659  0.8548E-01  0.3469E+01
    -10.641  0.1925E+00  0.3472E+01
    -10.623  0.3499E+00  0.3479E+01
    -10.605  0.5261E+00  0.3488E+01
    -10.587  0.6756E+00  0.3500E+01
    -10.569  0.7665E+00  0.3514E+01
    -10.551  0.7857E+00  0.3528E+01
    -10.533  0.7269E+00  0.3541E+01
    -10.515  0.5948E+00  0.3552E+01
    -10.497  0.4224E+00  0.3560E+01
    -10.479  0.2705E+00  0.3564E+01
    -10.461  0.1966E+00  0.3568E+01
    -10.443  0.2187E+00  0.3572E+01
    -10.425  0.3001E+00  0.3577E+01
    -10.407  0.3668E+00  0.3584E+01
    -10.389  0.3595E+00  0.3590E+01
    -10.371  0.2813E+00  0.3595E+01
    -10.353  0.1924E+00  0.3599E+01
    -10.335  0.1584E+00  0.3602E+01
    -10.317  0.2032E+00  0.3605E+01
    -10.299  0.2950E+00  0.3611E+01
    -10.281  0.3652E+00  0.3617E+01
    -10.263  0.3573E+00  0.3624E+01
    -10.245  0.2722E+00  0.3628E+01
    -10.227  0.1612E+00  0.3631E+01
    -10.209  0.7432E-01  0.3633E+01
    -10.192  0.2784E-01  0.3633E+01
    -10.174  0.1393E-01  0.3633E+01
    -10.156  0.2583E-01  0.3634E+01
    -10.138  0.6951E-01  0.3635E+01
    -10.120  0.1535E+00  0.3638E+01
    -10.102  0.2641E+00  0.3643E+01
    -10.084  0.3532E+00  0.3649E+01
    -10.066  0.3681E+00  0.3656E+01
    -10.048  0.3037E+00  0.3661E+01
    -10.030  0.2163E+00  0.3665E+01
    -10.012  0.1823E+00  0.3668E+01
     -9.994  0.2489E+00  0.3673E+01
     -9.976  0.4074E+00  0.3680E+01
     -9.958  0.5886E+00  0.3691E+01
     -9.940  0.6932E+00  0.3703E+01
     -9.922  0.6567E+00  0.3715E+01
     -9.904  0.4989E+00  0.3724E+01
     -9.886  0.3031E+00  0.3729E+01
     -9.868  0.1467E+00  0.3732E+01
     -9.850  0.5639E-01  0.3733E+01
     -9.832  0.1745E-01  0.3733E+01
     -9.814  0.6189E-02  0.3733E+01
     -9.796  0.1016E-01  0.3734E+01
     -9.778  0.3256E-01  0.3734E+01
     -9.760  0.8706E-01  0.3736E+01
     -9.742  0.1820E+00  0.3739E+01
     -9.724  0.2989E+00  0.3744E+01
     -9.706  0.3928E+00  0.3751E+01
     -9.688  0.4328E+00  0.3759E+01
     -9.670  0.4372E+00  0.3767E+01
     -9.652  0.4470E+00  0.3775E+01
     -9.634  0.4719E+00  0.3784E+01
     -9.616  0.4911E+00  0.3792E+01
     -9.599  0.4945E+00  0.3801E+01
     -9.581  0.4858E+00  0.3810E+01
     -9.563  0.4521E+00  0.3818E+01
     -9.545  0.3714E+00  0.3825E+01
     -9.527  0.2530E+00  0.3829E+01
     -9.509  0.1378E+00  0.3832E+01
     -9.491  0.5901E-01  0.3833E+01
     -9.473  0.1973E-01  0.3833E+01
     -9.455  0.5264E-02  0.3833E+01
     -9.437  0.2027E-02  0.3833E+01
     -9.419  0.5579E-02  0.3833E+01
     -9.401  0.2300E-01  0.3834E+01
     -9.383  0.7587E-01  0.3835E+01
     -9.365  0.1949E+00  0.3839E+01
     -9.347  0.3896E+00  0.3846E+01
     -9.329  0.6062E+00  0.3857E+01
     -9.311  0.7342E+00  0.3870E+01
     -9.293  0.6923E+00  0.3882E+01
     -9.275  0.5082E+00  0.3891E+01
     -9.257  0.2904E+00  0.3897E+01
     -9.239  0.1291E+00  0.3899E+01
     -9.221  0.4469E-01  0.3900E+01
     -9.203  0.1204E-01  0.3900E+01
     -9.185  0.2539E-02  0.3900E+01
     -9.167  0.5623E-03  0.3900E+01
     -9.149  0.1090E-02  0.3900E+01
     -9.131  0.5588E-02  0.3900E+01
     -9.113  0.2366E-01  0.3901E+01
     -9.095  0.7926E-01  0.3902E+01
     -9.077  0.2104E+00  0.3906E+01
     -9.059  0.4437E+00  0.3914E+01
     -9.041  0.7445E+00  0.3927E+01
     -9.023  0.9950E+00  0.3945E+01
     -9.006  0.1059E+01  0.3964E+01
     -8.988  0.9012E+00  0.3980E+01
     -8.970  0.6288E+00  0.3992E+01
     -8.952  0.4176E+00  0.3999E+01
     -8.934  0.4019E+00  0.4006E+01
     -8.916  0.6190E+00  0.4017E+01
     -8.898  0.9909E+00  0.4035E+01
     -8.880  0.1342E+01  0.4059E+01
     -8.862  0.1496E+01  0.4086E+01
     -8.844  0.1415E+01  0.4112E+01
     -8.826  0.1218E+01  0.4133E+01
     -8.808  0.1049E+01  0.4152E+01
     -8.790  0.9570E+00  0.4170E+01
     -8.772  0.9138E+00  0.4186E+01
     -8.754  0.9039E+00  0.4202E+01
     -8.736  0.9365E+00  0.4219E+01
     -8.718  0.1001E+01  0.4237E+01
     -8.700  0.1059E+01  0.4256E+01
     -8.682  0.1071E+01  0.4275E+01
     -8.664  0.1015E+01  0.4294E+01
     -8.646  0.8850E+00  0.4309E+01
     -8.628  0.7072E+00  0.4322E+01
     -8.610  0.5493E+00  0.4332E+01
     -8.592  0.4661E+00  0.4340E+01
     -8.574  0.4463E+00  0.4348E+01
     -8.556  0.4409E+00  0.4356E+01
     -8.538  0.4465E+00  0.4364E+01
     -8.520  0.5263E+00  0.4374E+01
     -8.502  0.7257E+00  0.4387E+01
     -8.484  0.9773E+00  0.4404E+01
     -8.466  0.1127E+01  0.4425E+01
     -8.448  0.1080E+01  0.4444E+01
     -8.430  0.8915E+00  0.4460E+01
     -8.413  0.6931E+00  0.4473E+01
     -8.395  0.5550E+00  0.4483E+01
     -8.377  0.4628E+00  0.4491E+01
     -8.359  0.3993E+00  0.4498E+01
     -8.341  0.3801E+00  0.4505E+01
     -8.323  0.4100E+00  0.4512E+01
     -8.305  0.4596E+00  0.4520E+01
     -8.287  0.5130E+00  0.4530E+01
     -8.269  0.5992E+00  0.4540E+01
     -8.251  0.7368E+00  0.4554E+01
     -8.233  0.8732E+00  0.4569E+01
     -8.215  0.9227E+00  0.4586E+01
     -8.197  0.8521E+00  0.4601E+01
     -8.179  0.6954E+00  0.4614E+01
     -8.161  0.5031E+00  0.4623E+01
     -8.143  0.3174E+00  0.4629E+01
     -8.125  0.1753E+00  0.4632E+01
     -8.107  0.1073E+00  0.4634E+01
     -8.089  0.1332E+00  0.4636E+01
     -8.071  0.2615E+00  0.4641E+01
     -8.053  0.4688E+00  0.4649E+01
     -8.035  0.6769E+00  0.4661E+01
     -8.017  0.7930E+00  0.4676E+01
     -7.999  0.8050E+00  0.4690E+01
     -7.981  0.8109E+00  0.4705E+01
     -7.963  0.9104E+00  0.4721E+01
     -7.945  0.1076E+01  0.4740E+01
     -7.927  0.1174E+01  0.4761E+01
     -7.909  0.1114E+01  0.4781E+01
     -7.891  0.9319E+00  0.4798E+01
     -7.873  0.7215E+00  0.4811E+01
     -7.855  0.5310E+00  0.4821E+01
     -7.837  0.3643E+00  0.4827E+01
     -7.819  0.2365E+00  0.4831E+01
     -7.802  0.1815E+00  0.4835E+01
     -7.784  0.2149E+00  0.4839E+01
     -7.766  0.3083E+00  0.4844E+01
     -7.748  0.4067E+00  0.4851E+01
     -7.730  0.4893E+00  0.4860E+01
     -7.712  0.6200E+00  0.4871E+01
     -7.694  0.9127E+00  0.4888E+01
     -7.676  0.1411E+01  0.4913E+01
     -7.658  0.1990E+01  0.4949E+01
     -7.640  0.2395E+01  0.4992E+01
     -7.622  0.2418E+01  0.5035E+01
     -7.604  0.2062E+01  0.5072E+01