    2    2    1    1
  0.2621357E+02  0.2460440E-09  0.2460440E-09  0.1000000E-08  0.5000000E-15
  1.000000000000000E-004
  CAR 
                                         
      8     60      8
 
  0.0000000E+00  0.0000000E+00  0.0000000E+00  0.1666667E-01
    1      -20.795310   1.000000
    2       -8.885448   1.000000
    3       -4.248951   1.000000
    4       -4.248163   1.000000
    5        1.890212   0.000000
    6        3.492328   0.000000
    7        4.674343   0.000000
    8        7.167403   0.000000
 
  0.2631579E-01  0.0000000E+00  0.0000000E+00  0.1666667E-01
    1      -20.778871   1.000000
    2       -8.865779   1.000000
    3       -4.316717   1.000000
    4       -4.285007   1.000000
    5        1.912595   0.000000
    6        3.514525   0.000000
    7        4.696377   0.000000
    8        7.179583   0.000000
 
  0.5263158E-01  0.0000000E+00  0.0000000E+00  0.1666667E-01
    1      -20.729564   1.000000
    2       -8.806747   1.000000
    3       -4.517301   1.000000
    4       -4.390602   1.000000
    5        1.979755   0.000000
    6        3.581128   0.000000
    7        4.762521   0.000000
    8        7.206017   0.000000
 
  0.7894737E-01  0.0000000E+00  0.0000000E+00  0.1666667E-01
    1      -20.647435   1.000000
    2       -8.707977   1.000000
    3       -4.838092   1.000000
    4       -4.556947   1.000000
    5        2.091690   0.000000
    6        3.692278   0.000000
    7        4.872787   0.000000
    8        7.232141   0.000000
 
  0.1052632E+00  0.0000000E+00  0.0000000E+00  0.1666667E-01
    1      -20.532580   1.000000
    2       -8.571024   1.000000
    3       -5.262041   1.000000
    4       -4.771679   1.000000
    5        2.248427   0.000000
    6        3.847319   0.000000
    7        5.027204   0.000000
    8        7.247917   0.000000
 
  0.1315789E+00  0.0000000E+00  0.0000000E+00  0.1666667E-01
    1      -20.385126   1.000000
    2       -8.395570   1.000000
    3       -5.770167   1.000000
    4       -5.022036   1.000000
    5        2.449917   0.000000
    6        4.046324   0.000000
    7        5.225589   0.000000
    8        7.237462   0.000000
 
  0.1578947E+00  0.0000000E+00  0.0000000E+00  0.1666667E-01
    1      -20.205242   1.000000
    2       -8.182030   1.000000
    3       -6.345331   1.000000
    4       -5.294431   1.000000
    5        2.696137   0.000000
    6        4.288932   0.000000
    7        5.467669   0.000000
    8        7.202701   0.000000
 
  0.1842105E+00  0.0000000E+00  0.0000000E+00  0.1666667E-01
    1      -19.993141   1.000000
    2       -7.931158   1.000000
    3       -6.969413   1.000000
    4       -5.577026   1.000000
    5        2.986987   0.000000
    6        4.574318   0.000000
    7        5.752507   0.000000
    8        7.141053   0.000000
 
  0.2105263E+00  0.0000000E+00  0.0000000E+00  0.1666667E-01
    1      -19.749091   1.000000
    2       -7.643971   1.000000
    3       -7.629060   1.000000
    4       -5.861799   1.000000
    5        3.322378   0.000000
    6        4.900345   0.000000
    7        6.077695   0.000000
    8        7.064070   0.000000
 
  0.2368421E+00  0.0000000E+00  0.0000000E+00  0.1666667E-01
    1      -19.473395   1.000000
    2       -8.311379   1.000000
    3       -7.321779   1.000000
    4       -6.139751   1.000000
    5        3.702158   0.000000
    6        5.257701   0.000000
    7        6.431913   0.000000
    8        6.475774   0.000000
 
  0.2631579E+00  0.0000000E+00  0.0000000E+00  0.1666667E-01
    1      -19.166483   1.000000
    2       -9.007146   1.000000
    3       -6.965904   1.000000
    4       -6.404214   1.000000
    5        4.126049   0.000000
    6        5.499143   0.000000
    7        5.930361   0.000000
    8        6.707293   0.000000
 
  0.2894737E+00  0.0000000E+00  0.0000000E+00  0.1666667E-01
    1      -18.828874   1.000000
    2       -9.708236   1.000000
    3       -6.650885   1.000000
    4       -6.578898   1.000000
    5        4.593636   0.000000
    6        4.937090   0.000000
    7        6.216213   0.000000
    8        6.692143   0.000000
 
  0.3157895E+00  0.0000000E+00  0.0000000E+00  0.1666667E-01
    1      -18.461202   1.000000
    2      -10.408446   1.000000
    3       -6.875558   1.000000
    4       -6.164051   1.000000
    5        4.209679   0.000000
    6        5.104073   0.000000
    7        6.608155   0.000000
    8        6.702065   0.000000
 
  0.3421053E+00  0.0000000E+00  0.0000000E+00  0.1666667E-01
    1      -18.064355   1.000000
    2      -11.100978   1.000000
    3       -7.075026   1.000000
    4       -5.726066   1.000000
    5        3.478799   0.000000
    6        5.654310   0.000000
    7        6.524284   0.000000
    8        7.241731   0.000000
 
  0.3684211E+00  0.0000000E+00  0.0000000E+00  0.1666667E-01
    1      -17.639651   1.000000
    2      -11.781723   1.000000
    3       -7.247569   1.000000
    4       -5.272030   1.000000
    5        2.766836   0.000000
    6        6.210360   0.000000
    7        6.485343   0.000000
    8        7.825288   0.000000
 
  0.3947368E+00  0.0000000E+00  0.0000000E+00  0.1666667E-01
    1      -17.189258   1.000000
    2      -12.445397   1.000000
    3       -7.390681   1.000000
    4       -4.814446   1.000000
    5        2.090199   0.000000
    6        6.333452   0.000000
    7        6.933506   0.000000
    8        8.448961   0.000000
 
  0.4210526E+00  0.0000000E+00  0.0000000E+00  0.1666667E-01
    1      -16.717078   1.000000
    2      -13.085303   1.000000
    3       -7.503573   1.000000
    4       -4.371103   1.000000
    5        1.473413   0.000000
    6        6.289777   0.000000
    7        7.605792   0.000000
    8        9.110873   0.000000
 
  0.4473684E+00  0.0000000E+00  0.0000000E+00  0.1666667E-01
    1      -16.233475   1.000000
    2      -13.690129   1.000000
    3       -7.584799   1.000000
    4       -3.982463   1.000000
    5        0.956418   0.000000
    6        6.250851   0.000000
    7        8.327328   0.000000
    8        9.804771   0.000000
 
  0.4736842E+00  0.0000000E+00  0.0000000E+00  0.1666667E-01
    1      -15.774455   1.000000
    2      -14.222202   1.000000
    3       -7.633919   1.000000
    4       -3.700227   1.000000
    5        0.596798   0.000000
    6        6.227117   0.000000
    7        9.089036   0.000000
    8       10.521617   0.000000
 
  0.5000000E+00  0.0000000E+00  0.0000000E+00  0.1666667E-01
    1      -15.523516   1.000000
    2      -14.497467   1.000000
    3       -7.650200   1.000000
    4       -3.594131   1.000000
    5        0.464778   0.000000
    6        6.218963   0.000000
    7        9.822197   0.000000
    8        9.962256   0.000000
 
  0.5000000E+00  0.0000000E+00  0.0000000E+00  0.1666667E-01
    1      -15.523516   1.000000
    2      -14.497467   1.000000
    3       -7.650200   1.000000
    4       -3.594131   1.000000
    5        0.464778   0.000000
    6        6.218963   0.000000
    7        9.822197   0.000000
    8        9.962256   0.000000
 
  0.4912281E+00  0.1754386E-01  0.0000000E+00  0.1666667E-01
    1      -15.518820   1.000000
    2      -14.492790   1.000000
    3       -7.674962   1.000000
    4       -3.587442   1.000000
    5        0.463277   0.000000
    6        6.252514   0.000000
    7        9.828799   0.000000
    8        9.969219   0.000000
 
  0.4824561E+00  0.3508772E-01  0.0000000E+00  0.1666667E-01
    1      -15.504758   1.000000
    2      -14.478940   1.000000
    3       -7.748893   1.000000
    4       -3.568382   1.000000
    5        0.458105   0.000000
    6        6.352143   0.000000
    7        9.848508   0.000000
    8        9.989932   0.000000
 
  0.4736842E+00  0.5263158E-01  0.0000000E+00  0.1666667E-01
    1      -15.481338   1.000000
    2      -14.455655   1.000000
    3       -7.869805   1.000000
    4       -3.535204   1.000000
    5        0.449240   0.000000
    6        6.515649   0.000000
    7        9.881349   0.000000
    8       10.024697   0.000000
 
  0.4649123E+00  0.7017544E-01  0.0000000E+00  0.1666667E-01
    1      -15.448458   1.000000
    2      -14.423298   1.000000
    3       -8.032903   1.000000
    4       -3.487673   1.000000
    5        0.437178   0.000000
    6        6.738536   0.000000
    7        9.927405   0.000000
    8       10.073194   0.000000
 
  0.4561404E+00  0.8771930E-01  0.0000000E+00  0.1666667E-01
    1      -15.406250   1.000000
    2      -14.381973   1.000000
    3       -8.233957   1.000000
    4       -3.427670   1.000000
    5        0.419516   0.000000
    6        7.016441   0.000000
    7        9.986117   0.000000
    8       10.135436   0.000000
 
  0.4473684E+00  0.1052632E+00  0.0000000E+00  0.1666667E-01
    1      -15.354695   1.000000
    2      -14.331968   1.000000
    3       -8.468255   1.000000
    4       -3.354385   1.000000
    5        0.396461   0.000000
    6        7.343398   0.000000
    7       10.057441   0.000000
    8       10.211256   0.000000
 
  0.4385965E+00  0.1228070E+00  0.0000000E+00  0.1666667E-01
    1      -15.293762   1.000000
    2      -14.273642   1.000000
    3       -8.730655   1.000000
    4       -3.267830   1.000000
    5        0.364619   0.000000
    6        7.713463   0.000000
    7       10.141071   0.000000
    8       10.300490   0.000000
 
  0.4298246E+00  0.1403509E+00  0.0000000E+00  0.1666667E-01
    1      -15.223470   1.000000
    2      -14.207432   1.000000
    3       -9.015696   1.000000
    4       -3.167988   1.000000
    5        0.323392   0.000000
    6        8.120187   0.000000
    7       10.236682   0.000000
    8       10.403008   0.000000
 
  0.4210526E+00  0.1578947E+00  0.0000000E+00  0.1666667E-01
    1      -15.143886   1.000000
    2      -14.134177   1.000000
    3       -9.318682   1.000000
    4       -3.054824   1.000000
    5        0.270890   0.000000
    6        8.557091   0.000000
    7       10.343561   0.000000
    8       10.518484   0.000000
 
  0.4122807E+00  0.1754386E+00  0.0000000E+00  0.1666667E-01
    1      -15.054933   1.000000
    2      -14.054843   1.000000
    3       -9.633904   1.000000
    4       -2.928806   1.000000
    5        0.205529   0.000000
    6        9.017278   0.000000
    7       10.398412   0.000000
    8       10.461305   0.000000
 
  0.4035088E+00  0.1929825E+00  0.0000000E+00  0.1666667E-01
    1      -14.956662   1.000000
    2      -13.970697   1.000000
    3       -9.957127   1.000000
    4       -2.789534   1.000000
    5        0.124612   0.000000
    6        9.492393   0.000000
    7       10.230781   0.000000
    8       10.588832   0.000000
 
  0.3947368E+00  0.2105263E+00  0.0000000E+00  0.1666667E-01
    1      -14.849093   1.000000
    2      -13.884209   1.000000
    3      -10.282666   1.000000
    4       -2.637652   1.000000
    5        0.026548   0.000000
    6        9.970488   0.000000
    7       10.062355   0.000000
    8       10.725026   0.000000
 
  0.3859649E+00  0.2280702E+00  0.0000000E+00  0.1666667E-01
    1      -14.732312   1.000000
    2      -13.798616   1.000000
    3      -10.604913   1.000000
    4       -2.472841   1.000000
    5       -0.091313   0.000000
    6        9.901631   0.000000
    7       10.438342   0.000000
    8       10.868081   0.000000
 
  0.3771930E+00  0.2456140E+00  0.0000000E+00  0.1666667E-01
    1      -14.606199   1.000000
    2      -13.719022   1.000000
    3      -10.915676   1.000000
    4       -2.295172   1.000000
    5       -0.227885   0.000000
    6        9.756809   0.000000
    7       10.869768   0.000000
    8       11.017095   0.000000
 
  0.3684211E+00  0.2631579E+00  0.0000000E+00  0.1666667E-01
    1      -14.470874   1.000000
    2      -13.653965   1.000000
    3      -11.205172   1.000000
    4       -2.104854   1.000000
    5       -0.385210   0.000000
    6        9.633448   0.000000
    7       11.166888   0.000000
    8       11.211670   0.000000
 
  0.3596491E+00  0.2807018E+00  0.0000000E+00  0.1666667E-01
    1      -14.326381   1.000000
    2      -13.616356   1.000000
    3      -11.458620   1.000000
    4       -1.903394   1.000000
    5       -0.564242   0.000000
    6        9.535623   0.000000
    7       11.315897   0.000000
    8       11.444024   0.000000
 
  0.3508772E+00  0.2982456E+00  0.0000000E+00  0.1666667E-01
    1      -14.172681   1.000000
    2      -13.624121   1.000000
    3      -11.656766   1.000000
    4       -1.688181   1.000000
    5       -0.764026   0.000000
    6        9.465817   0.000000
    7       11.458854   0.000000
    8       11.610538   0.000000
 
  0.3421053E+00  0.3157895E+00  0.0000000E+00  0.1666667E-01
    1      -14.010028   1.000000
    2      -13.695553   1.000000
    3      -11.780504   1.000000
    4       -1.460889   1.000000
    5       -0.984383   0.000000
    6        9.424759   0.000000
    7       11.588694   0.000000
    8       11.714426   0.000000
 
  0.3333333E+00  0.3333333E+00  0.0000000E+00  0.1666667E-01
    1      -13.838199   1.000000
    2      -13.838154   1.000000
    3      -11.820558   1.000000
    4       -1.221371   0.500043
    5       -1.221363   0.499957
    6        9.411638   0.000000
    7       11.701118   0.000000
    8       11.701165   0.000000
 
  0.3333333E+00  0.3333333E+00  0.0000000E+00  0.1666667E-01
    1      -13.838199   1.000000
    2      -13.838154   1.000000
    3      -11.820558   1.000000
    4       -1.221371   0.500043
    5       -1.221363   0.499957
    6        9.411638   0.000000
    7       11.701118   0.000000
    8       11.701165   0.000000
 
  0.3157895E+00  0.3157895E+00  0.0000000E+00  0.1666667E-01
    1      -14.291716   1.000000
    2      -13.467404   1.000000
    3      -11.692849   1.000000
    4       -1.741819   1.000000
    5       -0.705441   0.000000
    6        9.455889   0.000000
    7       11.166756   0.000000
    8       11.849022   0.000000
 
  0.2982456E+00  0.2982456E+00  0.0000000E+00  0.1666667E-01
    1      -14.859544   1.000000
    2      -13.060931   1.000000
    3      -11.395926   1.000000
    4       -2.310027   1.000000
    5       -0.145259   0.000000
    6        9.548379   0.000000
    7       10.318779   0.000000
    8       11.877010   0.000000
 
  0.2807018E+00  0.2807018E+00  0.0000000E+00  0.1666667E-01
    1      -15.459758   1.000000
    2      -12.619699   1.000000
    3      -11.008269   1.000000
    4       -2.908089   1.000000
    5        0.460495   0.000000
    6        9.421100   0.000000
    7        9.576369   0.000000
    8       11.800910   0.000000
 
  0.2631579E+00  0.2631579E+00  0.0000000E+00  0.1666667E-01
    1      -16.057007   1.000000
    2      -12.144383   1.000000
    3      -10.564695   1.000000
    4       -3.518730   1.000000
    5        1.105885   0.000000
    6        8.541578   0.000000
    7        9.366612   0.000000
    8       11.149007   0.000000
 
  0.2456140E+00  0.2456140E+00  0.0000000E+00  0.1666667E-01
    1      -16.635090   1.000000
    2      -11.636100   1.000000
    3      -10.081048   1.000000
    4       -4.127160   1.000000
    5        1.789521   0.000000
    6        7.702495   0.000000
    7        8.883517   0.000000
    8       10.388837   0.000000
 
  0.2280702E+00  0.2280702E+00  0.0000000E+00  0.1666667E-01
    1      -17.185901   1.000000
    2      -11.096646   1.000000
    3       -9.568354   1.000000
    4       -4.722726   1.000000
    5        2.507151   0.000000
    6        6.912363   0.000000
    7        8.266467   0.000000
    8        9.627569   0.000000
 
  0.2105263E+00  0.2105263E+00  0.0000000E+00  0.1666667E-01
    1      -17.704317   1.000000
    2      -10.527784   1.000000
    3       -9.033748   1.000000
    4       -5.295328   1.000000
    5        3.252922   0.000000
    6        6.175837   0.000000
    7        7.621441   0.000000
    8        8.906487   0.000000
 
  0.1929825E+00  0.1929825E+00  0.0000000E+00  0.1666667E-01
    1      -18.187167   1.000000
    2       -9.931494   1.000000
    3       -8.484488   1.000000
    4       -5.837975   1.000000
    5        4.022306   0.000000
    6        5.495277   0.000000
    7        6.994286   0.000000
    8        8.236296   0.000000
 
  0.1754386E+00  0.1754386E+00  0.0000000E+00  0.1666667E-01
    1      -18.632297   1.000000
    2       -9.311730   1.000000
    3       -7.928455   1.000000
    4       -6.345242   1.000000
    5        4.807246   0.000000
    6        4.872001   0.000000
    7        6.404675   0.000000
    8        7.620853   0.000000
 
  0.1578947E+00  0.1578947E+00  0.0000000E+00  0.1666667E-01
    1      -19.038150   1.000000
    2       -8.672897   1.000000
    3       -7.373374   1.000000
    4       -6.812699   1.000000
    5        4.306831   0.000000
    6        5.601414   0.000000
    7        5.862022   0.000000
    8        7.062052   0.000000
 
  0.1403509E+00  0.1403509E+00  0.0000000E+00  0.1666667E-01
    1      -19.403532   1.000000
    2       -8.021839   1.000000
    3       -7.237985   1.000000
    4       -6.830448   1.000000
    5        3.800365   0.000000
    6        5.370810   0.000000
    7        6.387302   0.000000
    8        6.561029   0.000000
 
  0.1228070E+00  0.1228070E+00  0.0000000E+00  0.1666667E-01
    1      -19.727539   1.000000
    2       -7.617647   1.000000
    3       -7.366316   1.000000
    4       -6.308053   1.000000
    5        3.353019   0.000000
    6        4.934168   0.000000
    7        6.118563   0.000000
    8        7.152142   0.000000
 
  0.1052632E+00  0.1052632E+00  0.0000000E+00  0.1666667E-01
    1      -20.009474   1.000000
    2       -7.949932   1.000000
    3       -6.717169   1.000000
    4       -5.818591   1.000000
    5        2.965061   0.000000
    6        4.553734   0.000000
    7        5.735018   0.000000
    8        7.784291   0.000000
 
  0.8771930E-01  0.8771930E-01  0.0000000E+00  0.1666667E-01
    1      -20.248828   1.000000
    2       -8.233433   1.000000
    3       -6.091462   1.000000
    4       -5.375135   1.000000
    5        2.636640   0.000000
    6        4.230561   0.000000
    7        5.410525   0.000000
    8        7.578234   0.000000
 
  0.7017544E-01  0.7017544E-01  0.0000000E+00  0.1666667E-01
    1      -20.445174   1.000000
    2       -8.466718   1.000000
    3       -5.509694   1.000000
    4       -4.989589   1.000000
    5        2.367885   0.000000
    6        3.965447   0.000000
    7        5.145194   0.000000
    8        7.418462   0.000000
 
  0.5263158E-01  0.5263158E-01  0.0000000E+00  0.1666667E-01
    1      -20.598196   1.000000
    2       -8.649625   1.000000
    3       -5.002532   1.000000
    4       -4.674878   1.000000
    5        2.158882   0.000000
    6        3.758602   0.000000
    7        4.939060   0.000000
    8        7.305134   0.000000
 
  0.3508772E-01  0.3508772E-01  0.0000000E+00  0.1666667E-01
    1      -20.707656   1.000000
    2       -8.780238   1.000000
    3       -4.599538   1.000000
    4       -4.441271   1.000000
    5        2.009600   0.000000
    6        3.610838   0.000000
    7        4.791920   0.000000
    8        7.228374   0.000000
 
  0.1754386E-01  0.1754386E-01  0.0000000E+00  0.1666667E-01
    1      -20.773389   1.000000
    2       -8.859218   1.000000
    3       -4.338738   1.000000
    4       -4.297464   1.000000
    5        1.920066   0.000000
    6        3.521927   0.000000
    7        4.703740   0.000000
    8        7.185020   0.000000
 
 -0.2428613E-16 -0.2428613E-16  0.0000000E+00  0.1666667E-01
    1      -20.795310   1.000000
    2       -8.885448   1.000000
    3       -4.248951   1.000000
    4       -4.248163   1.000000
    5        1.890212   0.000000
    6        3.492328   0.000000
    7        4.674343   0.000000
    8        7.167404   0.000000
