 written on  7Sep2020 at 09:57:31 
           8
         259
    1    1    1    1    1    1    1    1    1    2    1    1    1    1    1
    1    1    2    1    1    1    1    1    1    1    1    1    1    1    1
    1    1    1    1    1    1    1    1    1    1    1    1    1    1    1
    1    1    1    1    1    1    1    1    1    1    1    1    1    1    1
    1    1    1    1    1    1    1    1    1    1    1    1    1    1    1
    1    1    1    1    1    1    1    1    1    1    1    1    1    1    1
    1    1    1    1    1    1    1    1    1    1    1    1    1    1    1
    1    1    1    1    1    1    1    1    1    1    1    1    1    1    1
    1    2    1    1    1    1    1    1    1    1    1    1    1    1    1
    1    1    2    1    1    1    1    1    1    1    1    1    1    1    1
    1    1    1    1    1    1    1    1    1    1    1    1    1    1    1
    1    1    1    1    1    1    1    1    1    1    1    1    1    1    1
    1    1    1    1    1    1    1    1    1    1    1    1    1    1    1
    1    1    1    1    1    1    1    1    1    1    1    1    1    1    1
    1    1    1    1    1    1    1    1    1    1    1    1    1    1    1
    1    1    1    1    1    1    1    1    1    1    1    1    1    1    1
    1    2    1    1    1    1    1    1    1    2    1    1    1    1    1
    1    1    1    1
  -10   -6    0    1    1    0.100092    0.000055
  -10   -6    0    2    1   -0.078005    0.025003
  -10   -6    0    3    1    0.117864    0.018734
  -10   -6    0    4    1   -0.017657    0.019844
  -10   -6    0    5    1    0.073999   -0.002595
  -10   -6    0    6    1   -0.006403    0.019249
  -10   -6    0    7    1    0.075587    0.020139
  -10   -6    0    8    1   -0.001412    0.030171
  -10   -6    0    1    2   -0.077324   -0.025041
  -10   -6    0    2    2    0.010533    0.000000
  -10   -6    0    3    2   -0.041485   -0.009889
  -10   -6    0    4    2    0.081938    0.006289
  -10   -6    0    5    2    0.003785    0.027337
  -10   -6    0    6    2   -0.200735    0.000016
  -10   -6    0    7    2   -0.029486   -0.005103
  -10   -6    0    8    2   -0.026164    0.008740
  -10   -6    0    1    3    0.091419   -0.022542
  -10   -6    0    2    3   -0.016820    0.004647
  -10   -6    0    3    3   -0.018785    0.000490
  -10   -6    0    4    3   -0.019989   -0.016909
  -10   -6    0    5    3   -0.075648    0.020134
  -10   -6    0    6    3   -0.028889    0.005559
  -10   -6    0    7    3   -0.075679   -0.000008
  -10   -6    0    8    3   -0.004729   -0.032298
  -10   -6    0    1    4    0.014490   -0.022718
  -10   -6    0    2    4    0.047576   -0.013929
  -10   -6    0    3    4   -0.063484    0.017437
  -10   -6    0    4    4   -0.049281   -0.000428
  -10   -6    0    5    4    0.001297    0.030125
  -10   -6    0    6    4   -0.027070   -0.008531
  -10   -6    0    7    4   -0.004742    0.032283
  -10   -6    0    8    4    0.104945   -0.000017
  -10   -6    0    1    5   -0.265143    0.002591
  -10   -6    0    2    5    0.050755   -0.024133
  -10   -6    0    3    5   -0.048641   -0.014901
  -10   -6    0    4    5   -0.051307   -0.023953
  -10   -6    0    5    5    0.022075   -0.000057
  -10   -6    0    6    5    0.082320   -0.017194
  -10   -6    0    7    5   -0.091401   -0.022559
  -10   -6    0    8    5   -0.014412   -0.022736
  -10   -6    0    1    6   -0.051591   -0.016328
  -10   -6    0    2    6    0.220943   -0.000016
  -10   -6    0    3    6    0.012371   -0.011160
  -10   -6    0    4    6    0.041873    0.000882
  -10   -6    0    5    6    0.079146    0.017357
  -10   -6    0    6    6    0.010687   -0.000000
  -10   -6    0    7    6   -0.017218   -0.005139
  -10   -6    0    8    6    0.048948    0.013935
  -10   -6    0    1    7    0.048579   -0.014888
  -10   -6    0    2    7    0.013261    0.010935
  -10   -6    0    3    7   -0.035543    0.000003
  -10   -6    0    4    7   -0.085913   -0.031947
  -10   -6    0    5    7   -0.117852    0.018721
  -10   -6    0    6    7   -0.041596    0.010077
  -10   -6    0    7    7   -0.018777   -0.000488
  -10   -6    0    8    7   -0.063478   -0.017445
  -10   -6    0    1    8    0.051212   -0.023935
  -10   -6    0    2    8    0.041900   -0.000771
  -10   -6    0    3    8   -0.085899    0.031959
  -10   -6    0    4    8   -0.066873    0.000018
  -10   -6    0    5    8    0.017716    0.019790
  -10   -6    0    6    8    0.083235   -0.006735
  -10   -6    0    7    8   -0.019981    0.016917
  -10   -6    0    8    8   -0.049300    0.000428
  -10   -5    0    1    1    0.044967   -0.007506
  -10   -5    0    2    1    0.053904    0.007307
  -10   -5    0    3    1    0.101350    0.019608
  -10   -5    0    4    1   -0.004943   -0.022288
  -10   -5    0    5    1    0.055365   -0.002552
  -10   -5    0    6    1   -0.029568   -0.000034
  -10   -5    0    7    1    0.036878    0.030100
  -10   -5    0    8    1    0.010837    0.005784
  -10   -5    0    1    2    0.059664   -0.009566
  -10   -5    0    2    2    0.004609    0.015807
  -10   -5    0    3    2    0.065616   -0.015651
  -10   -5    0    4    2   -0.067011   -0.007212
  -10   -5    0    5    2    0.023232    0.008171
  -10   -5    0    6    2   -0.213857    0.000006
  -10   -5    0    7    2    0.051677   -0.002436
  -10   -5    0    8    2    0.117903    0.017517
  -10   -5    0    1    3    0.095927   -0.001541
  -10   -5    0    2    3    0.012257    0.003609
  -10   -5    0    3    3    0.028503    0.000019
  -10   -5    0    4    3   -0.046171   -0.032440
  -10   -5    0    5    3   -0.037014    0.030197
  -10   -5    0    6    3    0.051894    0.002718
  -10   -5    0    7    3    0.123378   -0.000003
  -10   -5    0    8    3   -0.024263   -0.017811
  -10   -5    0    1    4    0.066418   -0.006721
  -10   -5    0    2    4    0.125532   -0.010479
  -10   -5    0    3    4   -0.086110    0.032909
  -10   -5    0    4    4   -0.039675    0.000122
  -10   -5    0    5    4   -0.010850    0.005851
  -10   -5    0    6    4    0.118388   -0.018109
  -10   -5    0    7    4   -0.024271    0.017798
  -10   -5    0    8    4   -0.068967   -0.000011
  -10   -5    0    1    5   -0.296630    0.002572
  -10   -5    0    2    5   -0.131515   -0.021198
  -10   -5    0    3    5    0.007419    0.011292
  -10   -5    0    4    5   -0.082196   -0.016935
  -10   -5    0    5    5   -0.033036    0.007480
  -10   -5    0    6    5   -0.054062   -0.000526
  -10   -5    0    7    5   -0.095836   -0.001457
  -10   -5    0    8    5   -0.066442   -0.006632
  -10   -5    0    1    6    0.128526   -0.014681
  -10   -5    0    2    6    0.171686   -0.000023
  -10   -5    0    3    6   -0.022561   -0.012485
  -10   -5    0    4    6   -0.082009    0.002640
  -10   -5    0    5    6   -0.053380    0.000841
  -10   -5    0    6    6    0.004752   -0.015791
  -10   -5    0    7    6    0.013287   -0.003984
  -10   -5    0    8    6    0.125412    0.010039
  -10   -5    0    1    7   -0.007406    0.011183
  -10   -5    0    2    7   -0.022095    0.012727
  -10   -5    0    3    7    0.096201    0.000003
  -10   -5    0    4    7   -0.032781   -0.036273
  -10   -5    0    5    7   -0.101410    0.019711
  -10   -5    0    6    7    0.066270    0.016155
  -10   -5    0    7    7    0.028510   -0.000018
  -10   -5    0    8    7   -0.086107   -0.032921
  -10   -5    0    1    8    0.082011   -0.017044
  -10   -5    0    2    8   -0.082291   -0.002283
  -10   -5    0    3    8   -0.032768    0.036279
  -10   -5    0    4    8    0.000976    0.000016
  -10   -5    0    5    8    0.005091   -0.022231
  -10   -5    0    6    8   -0.067106    0.007507
  -10   -5    0    7    8   -0.046162    0.032442
  -10   -5    0    8    8   -0.039689   -0.000115
  -10   -4    0    1    1    0.105368   -0.021877
  -10   -4    0    2    1    0.145414    0.017904
  -10   -4    0    3    1   -0.014037   -0.006514
  -10   -4    0    4    1    0.035890   -0.014044
  -10   -4    0    5    1    0.087182   -0.002457
  -10   -4    0    6    1    0.135694   -0.003409
  -10   -4    0    7    1   -0.023993    0.016219
  -10   -4    0    8    1    0.011837   -0.013284
  -10   -4    0    1    2    0.148965   -0.021612
  -10   -4    0    2    2    0.010346    0.029208
  -10   -4    0    3    2   -0.027224    0.000571
  -10   -4    0    4    2    0.024422   -0.002602
  -10   -4    0    5    2   -0.140416    0.006832
  -10   -4    0    6    2   -0.166938   -0.000006
  -10   -4    0    7    2   -0.062546    0.007809
  -10   -4    0    8    2   -0.007354   -0.002763
  -10   -4    0    1    3    0.031546    0.034165
  -10   -4    0    2    3   -0.015042   -0.010431
  -10   -4    0    3    3   -0.052598    0.001161
  -10   -4    0    4    3   -0.051742   -0.012332
  -10   -4    0    5    3    0.023801    0.016401
  -10   -4    0    6    3   -0.063356   -0.007694
  -10   -4    0    7    3   -0.004716    0.000007
  -10   -4    0    8    3   -0.065314   -0.018581
  -10   -4    0    1    4    0.113242   -0.007663
  -10   -4    0    2    4   -0.071845   -0.005050
  -10   -4    0    3    4   -0.059999    0.023978
  -10   -4    0    4    4   -0.020558    0.008056
  -10   -4    0    5    4   -0.011751   -0.013118
  -10   -4    0    6    4   -0.006908    0.002359
  -10   -4    0    7    4   -0.065317    0.018576
  -10   -4    0    8    4   -0.027304   -0.000004
  -10   -4    0    1    5   -0.197174    0.002500
  -10   -4    0    2    5   -0.107680   -0.025414
  -10   -4    0    3    5    0.029526    0.006426
  -10   -4    0    4    5   -0.064705   -0.011709
  -10   -4    0    5    5    0.027390    0.021833
  -10   -4    0    6    5   -0.144770   -0.011992
  -10   -4    0    7    5   -0.031396    0.034334
  -10   -4    0    8    5   -0.113367   -0.007481
  -10   -4    0    1    6    0.105016   -0.017424
  -10   -4    0    2    6    0.038753   -0.000025
  -10   -4    0    3    6   -0.008820    0.004535
  -10   -4    0    4    6    0.063257   -0.010107
  -10   -4    0    5    6   -0.143512    0.011983
  -10   -4    0    6    6    0.010458   -0.029177
  -10   -4    0    7    6   -0.014209    0.009911
  -10   -4    0    8    6   -0.071242    0.005302
  -10   -4    0    1    7   -0.029441    0.006219
  -10   -4    0    2    7   -0.008656   -0.004192
  -10   -4    0    3    7    0.004023    0.000005
  -10   -4    0    4    7   -0.003150   -0.015631
  -10   -4    0    5    7    0.013910   -0.006311
  -10   -4    0    6    7   -0.027016    0.000392
  -10   -4    0    7    7   -0.052592   -0.001152
  -10   -4    0    8    7   -0.059997   -0.023988
  -10   -4    0    1    8    0.064450   -0.011918
  -10   -4    0    2    8    0.063866    0.009878
  -10   -4    0    3    8   -0.003133    0.015628
  -10   -4    0    4    8    0.103592    0.000006
  -10   -4    0    5    8   -0.035678   -0.013892
  -10   -4    0    6    8    0.024995    0.002657
  -10   -4    0    7    8   -0.051726    0.012328
  -10   -4    0    8    8   -0.020570   -0.008051
   -9   -7    0    1    1    0.071953    0.005109
   -9   -7    0    2    1    0.039907    0.022290
   -9   -7    0    3    1    0.057531    0.011117
   -9   -7    0    4    1   -0.045150    0.012655
   -9   -7    0    5    1    0.036907   -0.002603
   -9   -7    0    6    1   -0.017336    0.017605
   -9   -7    0    7    1    0.067340    0.032936
   -9   -7    0    8    1   -0.020824    0.044096
   -9   -7    0    1    2    0.028341   -0.022103
   -9   -7    0    2    2    0.039518    0.000000
   -9   -7    0    3    2    0.038641   -0.005837
   -9   -7    0    4    2   -0.055560    0.008875
   -9   -7    0    5    2    0.013290    0.024819
   -9   -7    0    6    2   -0.104657    0.000016
   -9   -7    0    7    2    0.009190   -0.010461
   -9   -7    0    8    2    0.045303    0.007085
   -9   -7    0    1    3   -0.006403   -0.025229
   -9   -7    0    2    3   -0.088433    0.014182
   -9   -7    0    3    3   -0.031423   -0.002128
   -9   -7    0    4    3   -0.003933   -0.030341
   -9   -7    0    5    3   -0.067389    0.032964
   -9   -7    0    6    3    0.008990    0.010912
   -9   -7    0    7    3   -0.071517   -0.000007
   -9   -7    0    8    3    0.035032   -0.013871
   -9   -7    0    1    4    0.021844   -0.034403
   -9   -7    0    2    4    0.057985   -0.010556
   -9   -7    0    3    4    0.025873    0.032253
   -9   -7    0    4    4   -0.041189   -0.001236
   -9   -7    0    5    4    0.020715    0.044064
   -9   -7    0    6    4    0.046183   -0.007048
   -9   -7    0    7    4    0.035018    0.013852
   -9   -7    0    8    4    0.022587   -0.000016
   -9   -7    0    1    5   -0.094320    0.002601
   -9   -7    0    2    5   -0.057116   -0.025010
   -9   -7    0    3    5   -0.003009   -0.009796
   -9   -7    0    4    5   -0.038540   -0.020853
   -9   -7    0    5    5   -0.006080   -0.005112
   -9   -7    0    6    5   -0.026394   -0.014463
   -9   -7    0    7    5    0.006411   -0.025221
   -9   -7    0    8    5   -0.021761   -0.034427
   -9   -7    0    1    6    0.051993   -0.017569
   -9   -7    0    2    6    0.105617   -0.000016
   -9   -7    0    3    6   -0.073072   -0.012426
   -9   -7    0    4    6   -0.000400    0.010647
   -9   -7    0    5    6   -0.035718    0.014437
   -9   -7    0    6    6    0.039673   -0.000000
   -9   -7    0    7    6   -0.087813   -0.014032
   -9   -7    0    8    6    0.057655    0.010899
   -9   -7    0    1    7    0.002958   -0.009753
   -9   -7    0    2    7   -0.073729    0.011788
   -9   -7    0    3    7   -0.125004    0.000003
   -9   -7    0    4    7    0.008349   -0.048224
   -9   -7    0    5    7   -0.057532    0.011080
   -9   -7    0    6    7    0.039146    0.005889
   -9   -7    0    7    7   -0.031416    0.002130
   -9   -7    0    8    7    0.025879   -0.032256
   -9   -7    0    1    8    0.038456   -0.020798
   -9   -7    0    2    8   -0.000825   -0.010882
   -9   -7    0    3    8    0.008361    0.048238
   -9   -7    0    4    8    0.033893    0.000018
   -9   -7    0    5    8    0.045203    0.012583
   -9   -7    0    6    8   -0.055799   -0.008915
   -9   -7    0    7    8   -0.003928    0.030343
   -9   -7    0    8    8   -0.041206    0.001236
   -9   -6    0    1    1    0.058936   -0.012692
   -9   -6    0    2    1    0.008066    0.015894
   -9   -6    0    3    1    0.114969    0.006934
   -9   -6    0    4    1    0.013244   -0.001513
   -9   -6    0    5    1    0.055489   -0.002562
   -9   -6    0    6    1    0.064506    0.015343
   -9   -6    0    7    1    0.092160    0.029609
   -9   -6    0    8    1   -0.039304    0.006713
   -9   -6    0    1    2    0.013006   -0.016093
   -9   -6    0    2    2    0.025283    0.015839
   -9   -6    0    3    2   -0.084957   -0.008833
   -9   -6    0    4    2    0.049859    0.001033
   -9   -6    0    5    2   -0.065176    0.022220
   -9   -6    0    6    2   -0.140421    0.000006
   -9   -6    0    7    2   -0.102735   -0.007213
   -9   -6    0    8    2   -0.027818    0.011655
   -9   -6    0    1    3    0.074660    0.016057
   -9   -6    0    2    3    0.019549    0.000200
   -9   -6    0    3    3   -0.081704    0.000007
   -9   -6    0    4    3   -0.015002   -0.036569
   -9   -6    0    5    3   -0.092285    0.029726
   -9   -6    0    6    3   -0.103359    0.007842
   -9   -6    0    7    3   -0.032908   -0.000005
   -9   -6    0    8    3   -0.015203   -0.030909
   -9   -6    0    1    4    0.057165   -0.015673
   -9   -6    0    2    4   -0.022127   -0.015090
   -9   -6    0    3    4   -0.007425    0.034773
   -9   -6    0    4    4    0.036006    0.001457
   -9   -6    0    5    4    0.039286    0.006767
   -9   -6    0    6    4   -0.027448   -0.011374
   -9   -6    0    7    4   -0.015215    0.030893
   -9   -6    0    8    4    0.000764   -0.000010
   -9   -6    0    1    5   -0.166428    0.002582
   -9   -6    0    2    5    0.051045   -0.012235
   -9   -6    0    3    5   -0.053641    0.003354
   -9   -6    0    4    5   -0.039325   -0.024556
   -9   -6    0    5    5   -0.019082    0.012665
   -9   -6    0    6    5   -0.011075   -0.009041
   -9   -6    0    7    5   -0.074574    0.016149
   -9   -6    0    8    5   -0.057179   -0.015615
   -9   -6    0    1    6   -0.052585   -0.004136
   -9   -6    0    2    6    0.164048   -0.000023
   -9   -6    0    3    6   -0.023694   -0.008127
   -9   -6    0    4    6    0.041253   -0.004615
   -9   -6    0    5    6   -0.003870    0.007441
   -9   -6    0    6    6    0.025426   -0.015823
   -9   -6    0    7    6    0.019327   -0.000121
   -9   -6    0    8    6   -0.021090    0.015443
   -9   -6    0    1    7    0.053664    0.003282
   -9   -6    0    2    7   -0.024623    0.007445
   -9   -6    0    3    7   -0.072706    0.000002
   -9   -6    0    4    7   -0.036597   -0.021248
   -9   -6    0    5    7   -0.115043    0.007003
   -9   -6    0    6    7   -0.085984    0.008770
   -9   -6    0    7    7   -0.081697   -0.000005
   -9   -6    0    8    7   -0.007420   -0.034782
   -9   -6    0    1    8    0.039151   -0.024614
   -9   -6    0    2    8    0.041998    0.004286
   -9   -6    0    3    8   -0.036581    0.021256
   -9   -6    0    4    8   -0.094930    0.000017
   -9   -6    0    5    8   -0.013105   -0.001495
   -9   -6    0    6    8    0.050976   -0.001528
   -9   -6    0    7    8   -0.014991    0.036566
   -9   -6    0    8    8    0.035988   -0.001450
   -9   -5    0    1    1    0.076808   -0.042444
   -9   -5    0    2    1   -0.035375   -0.017632
   -9   -5    0    3    1    0.054757    0.005374
   -9   -5    0    4    1   -0.061219   -0.018153
   -9   -5    0    5    1    0.053461   -0.002469
   -9   -5    0    6    1   -0.026519   -0.008975
   -9   -5    0    7    1    0.061780    0.000522
   -9   -5    0    8    1    0.000683    0.001584
   -9   -5    0    1    2   -0.028073    0.015598
   -9   -5    0    2    2    0.007050    0.029225
   -9   -5    0    3    2    0.116897   -0.003014
   -9   -5    0    4    2   -0.038771   -0.015582
   -9   -5    0    5    2    0.023569   -0.002645
   -9   -5    0    6    2   -0.136221   -0.000006
   -9   -5    0    7    2    0.170998    0.005146
   -9   -5    0    8    2    0.024435    0.013057
   -9   -5    0    1    3    0.061788    0.010909
   -9   -5    0    2    3    0.115262   -0.005368
   -9   -5    0    3    3    0.055789   -0.002732
   -9   -5    0    4    3   -0.012517   -0.009168
   -9   -5    0    5    3   -0.061967    0.000710
   -9   -5    0    6    3    0.171867   -0.004645
   -9   -5    0    7    3    0.024095    0.000004
   -9   -5    0    8    3   -0.022787   -0.022536
   -9   -5    0    1    4    0.009385   -0.000566
   -9   -5    0    2    4    0.073014   -0.012718
   -9   -5    0    3    4   -0.034324    0.022419
   -9   -5    0    4    4   -0.103534    0.001969
   -9   -5    0    5    4   -0.000605    0.001714
   -9   -5    0    6    4    0.024672   -0.013285
   -9   -5    0    7    4   -0.022790    0.022526
   -9   -5    0    8    4   -0.019147   -0.000003
   -9   -5    0    1    5   -0.263282    0.002507
   -9   -5    0    2    5   -0.053677    0.014032
   -9   -5    0    3    5   -0.083214   -0.003976
   -9   -5    0    4    5   -0.042929   -0.005141
   -9   -5    0    5    5   -0.001177    0.042397
   -9   -5    0    6    5    0.033717    0.023636
   -9   -5    0    7    5   -0.061637    0.011073
   -9   -5    0    8    5   -0.009500   -0.000432
   -9   -5    0    1    6    0.053271    0.020056
   -9   -5    0    2    6    0.165496   -0.000025
   -9   -5    0    3    6    0.125002   -0.008183
   -9   -5    0    4    6   -0.087924   -0.013110
   -9   -5    0    5    6    0.035827   -0.025134
   -9   -5    0    6    6    0.007162   -0.029195
   -9   -5    0    7    6    0.114511    0.005490
   -9   -5    0    8    6    0.072590    0.012285
   -9   -5    0    1    7    0.083306   -0.004152
   -9   -5    0    2    7    0.124720    0.007848
   -9   -5    0    3    7    0.009403    0.000002
   -9   -5    0    4    7   -0.049372   -0.013814
   -9   -5    0    5    7   -0.054897    0.005541
   -9   -5    0    6    7    0.116306    0.002768
   -9   -5    0    7    7    0.055797    0.002743
   -9   -5    0    8    7   -0.034325   -0.022427
   -9   -5    0    1    8    0.042691   -0.005299
   -9   -5    0    2    8   -0.088966    0.013474
   -9   -5    0    3    8   -0.049355    0.013811
   -9   -5    0    4    8   -0.028717    0.000007
   -9   -5    0    5    8    0.061420   -0.018049
   -9   -5    0    6    8   -0.038661    0.015694
   -9   -5    0    7    8   -0.012502    0.009162
   -9   -5    0    8    8   -0.103544   -0.001964
   -9   -4    0    1    1    0.076446   -0.012820
   -9   -4    0    2    1    0.066419   -0.021064
   -9   -4    0    3    1    0.031618    0.028653
   -9   -4    0    4    1   -0.040273   -0.019381
   -9   -4    0    5    1    0.061387   -0.002337
   -9   -4    0    6    1    0.001218   -0.036862
   -9   -4    0    7    1   -0.028715    0.020905
   -9   -4    0    8    1   -0.079797   -0.018832
   -9   -4    0    1    2    0.062380    0.015348
   -9   -4    0    2    2    0.006843    0.038145
   -9   -4    0    3    2    0.047960   -0.003991
   -9   -4    0    4    2   -0.032436   -0.001334
   -9   -4    0    5    2   -0.005223   -0.027673
   -9   -4    0    6    2   -0.106788   -0.000018
   -9   -4    0    7    2   -0.011813    0.003327
   -9   -4    0    8    2    0.003571   -0.006372
   -9   -4    0    1    3    0.063096    0.007975
   -9   -4    0    2    3   -0.097846   -0.011948
   -9   -4    0    3    3    0.004808    0.005582
   -9   -4    0    4    3   -0.063274    0.012116
   -9   -4    0    5    3    0.028494    0.021134
   -9   -4    0    6    3   -0.011131   -0.002788
   -9   -4    0    7    3    0.063844    0.000012
   -9   -4    0    8    3   -0.052264   -0.020403
   -9   -4    0    1    4    0.060651   -0.004881
   -9   -4    0    2    4   -0.057924    0.010885
   -9   -4    0    3    4   -0.098236    0.013524
   -9   -4    0    4    4   -0.051983    0.021426
   -9   -4    0    5    4    0.079954   -0.018647
   -9   -4    0    6    4    0.004586    0.005712
   -9   -4    0    7    4   -0.052257    0.020398
   -9   -4    0    8    4   -0.088639   -0.000002
   -9   -4    0    1    5   -0.206487    0.002390
   -9   -4    0    2    5   -0.093219   -0.006305
   -9   -4    0    3    5   -0.035093    0.022142
   -9   -4    0    4    5   -0.091093   -0.021411
   -9   -4    0    5    5   -0.001495    0.012758
   -9   -4    0    6    5   -0.057334    0.026486
   -9   -4    0    7    5   -0.062907    0.008188
   -9   -4    0    8    5   -0.060848   -0.004692
   -9   -4    0    1    6    0.091954   -0.001423
   -9   -4    0    2    6    0.080567   -0.000022
   -9   -4    0    3    6    0.000263    0.005256
   -9   -4    0    4    6    0.052784    0.000008
   -9   -4    0    5    6   -0.065413   -0.025521
   -9   -4    0    6    6    0.006908   -0.038106
   -9   -4    0    7    6   -0.097954    0.012042
   -9   -4    0    8    6   -0.057834   -0.011082
   -9   -4    0    1    7    0.035237    0.021888
   -9   -4    0    2    7    0.000277   -0.004871
   -9   -4    0    3    7    0.023611    0.000008
   -9   -4    0    4    7   -0.104170   -0.002315
   -9   -4    0    5    7   -0.031802    0.028892
   -9   -4    0    6    7    0.047480    0.004201
   -9   -4    0    7    7    0.004812   -0.005556
   -9   -4    0    8    7   -0.098242   -0.013531
   -9   -4    0    1    8    0.090821   -0.021638
   -9   -4    0    2    8    0.052650   -0.000018
   -9   -4    0    3    8   -0.104153    0.002306
   -9   -4    0    4    8    0.002862   -0.000002
   -9   -4    0    5    8    0.040496   -0.019209
   -9   -4    0    6    8   -0.033283    0.001756
   -9   -4    0    7    8   -0.063257   -0.012120
   -9   -4    0    8    8   -0.051987   -0.021430
   -9   -3    0    1    1    0.071901   -0.025402
   -9   -3    0    2    1   -0.021971    0.007623
   -9   -3    0    3    1   -0.001904    0.013884
   -9   -3    0    4    1    0.013220   -0.031537
   -9   -3    0    5    1    0.057538   -0.002190
   -9   -3    0    6    1   -0.016848   -0.011802
   -9   -3    0    7    1   -0.075459    0.021636
   -9   -3    0    8    1    0.012328   -0.021762
   -9   -3    0    1    2   -0.032371   -0.012787
   -9   -3    0    2    2    0.024693    0.041275
   -9   -3    0    3    2   -0.029210    0.003216
   -9   -3    0    4    2    0.124773   -0.005041
   -9   -3    0    5    2    0.012038   -0.000510
   -9   -3    0    6    2   -0.062701   -0.000028
   -9   -3    0    7    2   -0.127243    0.010750
   -9   -3    0    8    2   -0.083705   -0.007525
   -9   -3    0    1    3    0.030836    0.020159
   -9   -3    0    2    3   -0.072436   -0.007473
   -9   -3    0    3    3   -0.047866   -0.001976
   -9   -3    0    4    3   -0.026275    0.018506
   -9   -3    0    5    3    0.075236    0.021872
   -9   -3    0    6    3   -0.126692   -0.010729
   -9   -3    0    7    3   -0.011863    0.000014
   -9   -3    0    8    3   -0.004077    0.020850
   -9   -3    0    1    4    0.060253   -0.018206
   -9   -3    0    2    4   -0.029277    0.002009
   -9   -3    0    3    4   -0.060843    0.009384
   -9   -3    0    4    4   -0.010208    0.012512
   -9   -3    0    5    4   -0.012120   -0.021544
   -9   -3    0    6    4   -0.084723    0.007645
   -9   -3    0    7    4   -0.004063   -0.020854
   -9   -3    0    8    4   -0.068240   -0.000005
   -9   -3    0    1    5   -0.112634    0.002249
   -9   -3    0    2    5    0.034475   -0.018605
   -9   -3    0    3    5    0.012605    0.030125
   -9   -3    0    4    5    0.000118   -0.001293
   -9   -3    0    5    5   -0.005993    0.025335
   -9   -3    0    6    5    0.038723   -0.002406
   -9   -3    0    7    5   -0.030637    0.020391
   -9   -3    0    8    5   -0.060512   -0.017989
   -9   -3    0    1    6   -0.036349   -0.010746
   -9   -3    0    2    6   -0.022527   -0.000015
   -9   -3    0    3    6   -0.009253    0.004536
   -9   -3    0    4    6    0.128408   -0.004672
   -9   -3    0    5    6    0.021618    0.002346
   -9   -3    0    6    6    0.024703   -0.041232
   -9   -3    0    7    6   -0.072622    0.007051
   -9   -3    0    8    6   -0.028501   -0.001560
   -9   -3    0    1    7   -0.012428    0.029834
   -9   -3    0    2    7   -0.007734   -0.004107
   -9   -3    0    3    7   -0.016637    0.000014
   -9   -3    0    4    7    0.006789   -0.005698
   -9   -3    0    5    7    0.001697    0.014155
   -9   -3    0    6    7   -0.028542   -0.002698
   -9   -3    0    7    7   -0.047866    0.002010
   -9   -3    0    8    7   -0.060854   -0.009392
   -9   -3    0    1    8   -0.000387   -0.001553
   -9   -3    0    2    8    0.128296    0.004277
   -9   -3    0    3    8    0.006804    0.005688
   -9   -3    0    4    8   -0.012878   -0.000005
   -9   -3    0    5    8   -0.013008   -0.031322
   -9   -3    0    6    8    0.125198    0.004815
   -9   -3    0    7    8   -0.026260   -0.018506
   -9   -3    0    8    8   -0.010210   -0.012521
   -9   -2    0    1    1    0.086857   -0.023158
   -9   -2    0    2    1   -0.029395    0.011348
   -9   -2    0    3    1    0.044063   -0.002385
   -9   -2    0    4    1    0.075966   -0.029381
   -9   -2    0    5    1    0.050536   -0.002047
   -9   -2    0    6    1   -0.058423    0.010262
   -9   -2    0    7    1    0.011316    0.006878
   -9   -2    0    8    1   -0.010466   -0.054080
   -9   -2    0    1    2   -0.022778   -0.013174
   -9   -2    0    2    2    0.038635    0.038162
   -9   -2    0    3    2    0.004084    0.002806
   -9   -2    0    4    2   -0.028394   -0.001187
   -9   -2    0    5    2    0.052275    0.019201
   -9   -2    0    6    2   -0.030683   -0.000035
   -9   -2    0    7    2   -0.003822    0.002425
   -9   -2    0    8    2    0.113195   -0.005174
   -9   -2    0    1    3    0.047365    0.048896
   -9   -2    0    2    3   -0.021082   -0.005960
   -9   -2    0    3    3   -0.077372    0.000906
   -9   -2    0    4    3   -0.080655    0.022976
   -9   -2    0    5    3   -0.011508    0.007086
   -9   -2    0    6    3   -0.004143   -0.003054
   -9   -2    0    7    3   -0.015523    0.000010
   -9   -2    0    8    3   -0.061349    0.026961
   -9   -2    0    1    4    0.003050    0.006821
   -9   -2    0    2    4    0.141196    0.004447
   -9   -2    0    3    4   -0.051987   -0.019299
   -9   -2    0    4    4   -0.009262    0.004917
   -9   -2    0    5    4    0.010691   -0.053859
   -9   -2    0    6    4    0.113147    0.005402
   -9   -2    0    7    4   -0.061329   -0.026963
   -9   -2    0    8    4    0.000802   -0.000003
   -9   -2    0    1    5   -0.071772    0.002103
   -9   -2    0    2    5    0.008087   -0.005766
   -9   -2    0    3    5   -0.004937    0.035479
   -9   -2    0    4    5    0.031247    0.004406
   -9   -2    0    5    5    0.009011    0.023099
   -9   -2    0    6    5    0.025913   -0.005916
   -9   -2    0    7    5   -0.047192    0.049111
   -9   -2    0    8    5   -0.003334    0.007033
   -9   -2    0    1    6   -0.015249    0.004214
   -9   -2    0    2    6   -0.073811   -0.000005
   -9   -2    0    3    6   -0.040541    0.010609
   -9   -2    0    4    6   -0.008830   -0.002853
   -9   -2    0    5    6    0.032206    0.002885
   -9   -2    0    6    6    0.038590   -0.038122
   -9   -2    0    7    6   -0.019865    0.005529
   -9   -2    0    8    6    0.140493   -0.004355
   -9   -2    0    1    7    0.005113    0.035195
   -9   -2    0    2    7   -0.039929   -0.010353
   -9   -2    0    3    7    0.028347    0.000014
   -9   -2    0    4    7   -0.025951    0.041331
   -9   -2    0    5    7   -0.044260   -0.002124
   -9   -2    0    6    7    0.005542   -0.002535
   -9   -2    0    7    7   -0.077375   -0.000882
   -9   -2    0    8    7   -0.052004    0.019288
   -9   -2    0    1    8   -0.031471    0.004151
   -9   -2    0    2    8   -0.009150    0.002785
   -9   -2    0    3    8   -0.025945   -0.041340
   -9   -2    0    4    8   -0.005870   -0.000003
   -9   -2    0    5    8   -0.075803   -0.029159
   -9   -2    0    6    8   -0.029222    0.001086
   -9   -2    0    7    8   -0.080647   -0.022975
   -9   -2    0    8    8   -0.009255   -0.004922
   -8   -8    0    1    1    0.066396   -0.000000
   -8   -8    0    2    1   -0.028266    0.022969
   -8   -8    0    3    1   -0.063831    0.013142
   -8   -8    0    4    1   -0.038614    0.020026
   -8   -8    0    5    1   -0.009235   -0.002606
   -8   -8    0    6    1   -0.029965    0.017368
   -8   -8    0    7    1    0.031427    0.022756
   -8   -8    0    8    1    0.013180    0.032444
   -8   -8    0    1    2   -0.028266   -0.022969
   -8   -8    0    2    2    0.038779    0.000000
   -8   -8    0    3    2    0.067796   -0.013344
   -8   -8    0    4    2    0.014866    0.007304
   -8   -8    0    5    2    0.028458    0.025621
   -8   -8    0    6    2   -0.005830    0.000016
   -8   -8    0    7    2    0.023684   -0.011839
   -8   -8    0    8    2   -0.012839    0.012049
   -8   -8    0    1    3   -0.063831   -0.013142
   -8   -8    0    2    3    0.067796    0.013344
   -8   -8    0    3    3    0.001691    0.000000
   -8   -8    0    4    3    0.021294   -0.049931
   -8   -8    0    5    3   -0.031469    0.022806
   -8   -8    0    6    3    0.023158    0.011845
   -8   -8    0    7    3   -0.050752   -0.000005
   -8   -8    0    8    3    0.035641   -0.032200
   -8   -8    0    1    4   -0.038614   -0.020026
   -8   -8    0    2    4    0.014866   -0.007304
   -8   -8    0    3    4    0.021294    0.049931
   -8   -8    0    4    4   -0.061674    0.000000
   -8   -8    0    5    4   -0.013275    0.032472
   -8   -8    0    6    4   -0.013803   -0.012317
   -8   -8    0    7    4    0.035627    0.032181
   -8   -8    0    8    4   -0.021588   -0.000016
   -8   -8    0    1    5   -0.009235    0.002606
   -8   -8    0    2    5    0.028458   -0.025621
   -8   -8    0    3    5   -0.031469   -0.022806
   -8   -8    0    4    5   -0.013275   -0.032472
   -8   -8    0    5    5   -0.011647   -0.000000
   -8   -8    0    6    5    0.031334   -0.015222
   -8   -8    0    7    5    0.063829   -0.013106
   -8   -8    0    8    5    0.038683   -0.019998
   -8   -8    0    1    6   -0.029965   -0.017368
   -8   -8    0    2    6   -0.005830   -0.000016
   -8   -8    0    3    6    0.023158   -0.011845
   -8   -8    0    4    6   -0.013803    0.012317
   -8   -8    0    5    6    0.031334    0.015222
   -8   -8    0    6    6    0.038934   -0.000000
   -8   -8    0    7    6    0.067745   -0.014077
   -8   -8    0    8    6    0.016740    0.007277
   -8   -8    0    1    7    0.031427   -0.022756
   -8   -8    0    2    7    0.023684    0.011839
   -8   -8    0    3    7   -0.050752    0.000005
   -8   -8    0    4    7    0.035627   -0.032181
   -8   -8    0    5    7    0.063829    0.013106
   -8   -8    0    6    7    0.067745    0.014077
   -8   -8    0    7    7    0.001698    0.000000
   -8   -8    0    8    7    0.021300   -0.049931
   -8   -8    0    1    8    0.013180   -0.032444
   -8   -8    0    2    8   -0.012839   -0.012049
   -8   -8    0    3    8    0.035641    0.032200
   -8   -8    0    4    8   -0.021588    0.000016
   -8   -8    0    5    8    0.038683    0.019998
   -8   -8    0    6    8    0.016740   -0.007277
   -8   -8    0    7    8    0.021300    0.049931
   -8   -8    0    8    8   -0.061694    0.000000
   -8   -7    0    1    1    0.028741   -0.035174
   -8   -7    0    2    1    0.013460    0.024597
   -8   -7    0    3    1    0.019975    0.017642
   -8   -7    0    4    1    0.003999    0.022608
   -8   -7    0    5    1    0.057966   -0.002566
   -8   -7    0    6    1   -0.002269    0.015230
   -8   -7    0    7    1    0.050012    0.013109
   -8   -7    0    8    1   -0.047192    0.024407
   -8   -7    0    1    2    0.021800   -0.025606
   -8   -7    0    2    2    0.032563    0.015880
   -8   -7    0    3    2    0.024802   -0.006356
   -8   -7    0    4    2   -0.057966    0.000027
   -8   -7    0    5    2   -0.003798    0.023698
   -8   -7    0    6    2   -0.045971    0.000006
   -8   -7    0    7    2    0.065541   -0.001699
   -8   -7    0    8    2    0.029869    0.009005
   -8   -7    0    1    3   -0.061697    0.003027
   -8   -7    0    2    3    0.057152   -0.000340
   -8   -7    0    3    3   -0.052417   -0.001431
   -8   -7    0    4    3    0.010815   -0.017787
   -8   -7    0    5    3   -0.050127    0.013253
   -8   -7    0    6    3    0.065769    0.001607
   -8   -7    0    7    3    0.024822   -0.000003
   -8   -7    0    8    3    0.015491   -0.035197
   -8   -7    0    1    4   -0.001859   -0.029065
   -8   -7    0    2    4    0.022152   -0.013347
   -8   -7    0    3    4    0.044820    0.017138
   -8   -7    0    4    4    0.028486   -0.004677
   -8   -7    0    5    4    0.047191    0.024508
   -8   -7    0    6    4    0.029980   -0.009255
   -8   -7    0    7    4    0.015480    0.035179
   -8   -7    0    8    4   -0.034772   -0.000009
   -8   -7    0    1    5    0.006432    0.002589
   -8   -7    0    2    5   -0.058849   -0.025784
   -8   -7    0    3    5   -0.016490   -0.021386
   -8   -7    0    4    5    0.013251   -0.033435
   -8   -7    0    5    5   -0.049290    0.035151
   -8   -7    0    6    5   -0.016283   -0.017776
   -8   -7    0    7    5    0.061770    0.003149
   -8   -7    0    8    5    0.001834   -0.028977
   -8   -7    0    1    6    0.055280   -0.017424
   -8   -7    0    2    6    0.041717   -0.000023
   -8   -7    0    3    6    0.027314   -0.004871
   -8   -7    0    4    6   -0.115773   -0.005454
   -8   -7    0    5    6   -0.012852    0.016922
   -8   -7    0    6    6    0.032707   -0.015863
   -8   -7    0    7    6    0.057564   -0.000106
   -8   -7    0    8    6    0.021557    0.013442
   -8   -7    0    1    7    0.016524   -0.021438
   -8   -7    0    2    7    0.027713    0.004733
   -8   -7    0    3    7   -0.003251    0.000003
   -8   -7    0    4    7    0.021732   -0.014981
   -8   -7    0    5    7   -0.020055    0.017699
   -8   -7    0    6    7    0.025570    0.007077
   -8   -7    0    7    7   -0.052410    0.001431
   -8   -7    0    8    7    0.044822   -0.017142
   -8   -7    0    1    8   -0.013426   -0.033492
   -8   -7    0    2    8   -0.116736    0.005544
   -8   -7    0    3    8    0.021747    0.014991
   -8   -7    0    4    8    0.017327    0.000016
   -8   -7    0    5    8   -0.003849    0.022644
   -8   -7    0    6    8   -0.057648    0.000123
   -8   -7    0    7    8    0.010823    0.017778
   -8   -7    0    8    8    0.028471    0.004683
   -8   -6    0    1    1    0.057349   -0.025177
   -8   -6    0    2    1    0.079616    0.014053
   -8   -6    0    3    1    0.044278    0.032743
   -8   -6    0    4    1   -0.023651   -0.021376
   -8   -6    0    5    1    0.022467   -0.002476
   -8   -6    0    6    1    0.069716    0.014947
   -8   -6    0    7    1    0.063310    0.018652
   -8   -6    0    8    1   -0.043958    0.008294
   -8   -6    0    1    2    0.066225   -0.014675
   -8   -6    0    2    2    0.014908    0.029310
   -8   -6    0    3    2   -0.060608   -0.000045
   -8   -6    0    4    2   -0.073573   -0.010194
   -8   -6    0    5    2   -0.072795    0.022670
   -8   -6    0    6    2   -0.064039   -0.000006
   -8   -6    0    7    2   -0.024820    0.002356
   -8   -6    0    8    2   -0.024232    0.006256
   -8   -6    0    1    3   -0.011904   -0.008861
   -8   -6    0    2    3   -0.070247   -0.001664
   -8   -6    0    3    3   -0.035054    0.001953
   -8   -6    0    4    3    0.002661   -0.006435
   -8   -6    0    5    3   -0.063484    0.018865
   -8   -6    0    6    3   -0.025517   -0.002412
   -8   -6    0    7    3   -0.020105    0.000005
   -8   -6    0    8    3    0.015526   -0.019010
   -8   -6    0    1    4   -0.031684   -0.007234
   -8   -6    0    2    4   -0.097123   -0.002540
   -8   -6    0    3    4    0.024070    0.017511
   -8   -6    0    4    4   -0.001020    0.007630
   -8   -6    0    5    4    0.044045    0.008448
   -8   -6    0    6    4   -0.022619   -0.006220
   -8   -6    0    7    4    0.015520    0.018997
   -8   -6    0    8    4    0.007802   -0.000003
   -8   -6    0    1    5   -0.070709    0.002518
   -8   -6    0    2    5   -0.035885   -0.009078
   -8   -6    0    3    5   -0.047599    0.009478
   -8   -6    0    4    5   -0.044551   -0.020232
   -8   -6    0    5    5   -0.020653    0.025133
   -8   -6    0    6    5   -0.065227   -0.008019
   -8   -6    0    7    5    0.012040   -0.008674
   -8   -6    0    8    5    0.031569   -0.007096
   -8   -6    0    1    6    0.030428    0.000627
   -8   -6    0    2    6    0.083298   -0.000025
   -8   -6    0    3    6   -0.024223    0.003647
   -8   -6    0    4    6    0.040716   -0.005823
   -8   -6    0    5    6   -0.074518    0.005168
   -8   -6    0    6    6    0.015020   -0.029280
   -8   -6    0    7    6   -0.069446    0.001455
   -8   -6    0    8    6   -0.097259    0.002993
   -8   -6    0    1    7    0.047702    0.009335
   -8   -6    0    2    7   -0.025016   -0.004109
   -8   -6    0    3    7   -0.094745    0.000003
   -8   -6    0    4    7    0.009975   -0.017746
   -8   -6    0    5    7   -0.044426    0.032883
   -8   -6    0    6    7   -0.060866    0.000507
   -8   -6    0    7    7   -0.035049   -0.001943
   -8   -6    0    8    7    0.024070   -0.017514
   -8   -6    0    1    8    0.044315   -0.020367
   -8   -6    0    2    8    0.040918    0.005493
   -8   -6    0    3    8    0.009993    0.017745
   -8   -6    0    4    8    0.009141    0.000007
   -8   -6    0    5    8    0.023853   -0.021278
   -8   -6    0    6    8   -0.074054    0.010068
   -8   -6    0    7    8    0.002675    0.006423
   -8   -6    0    8    8   -0.001032   -0.007626
   -8   -5    0    1    1    0.048615   -0.009834
   -8   -5    0    2    1   -0.032687   -0.011984
   -8   -5    0    3    1    0.089199    0.008242
   -8   -5    0    4    1   -0.000126   -0.016110
   -8   -5    0    5    1    0.028765   -0.002350
   -8   -5    0    6    1    0.029863    0.002454
   -8   -5    0    7    1    0.027767    0.033652
   -8   -5    0    8    1   -0.007031   -0.004599
   -8   -5    0    1    2   -0.028839    0.011941
   -8   -5    0    2    2    0.000390    0.038235
   -8   -5    0    3    2    0.122718    0.011182
   -8   -5    0    4    2    0.086203   -0.007119
   -8   -5    0    5    2   -0.029835    0.007909
   -8   -5    0    6    2   -0.063421   -0.000018
   -8   -5    0    7    2    0.050823    0.002791
   -8   -5    0    8    2   -0.112337   -0.005317
   -8   -5    0    1    3    0.050365    0.019626
   -8   -5    0    2    3    0.188283   -0.004247
   -8   -5    0    3    3   -0.022142    0.003408
   -8   -5    0    4    3    0.015062    0.011614
   -8   -5    0    5    3   -0.027977    0.033901
   -8   -5    0    6    3    0.050874   -0.002920
   -8   -5    0    7    3   -0.008138    0.000012
   -8   -5    0    8    3    0.025890   -0.002824
   -8   -5    0    1    4    0.018829   -0.029655
   -8   -5    0    2    4   -0.010859   -0.003706
   -8   -5    0    3    4   -0.008843    0.016640
   -8   -5    0    4    4    0.018012    0.019788
   -8   -5    0    5    4    0.007191   -0.004415
   -8   -5    0    6    4   -0.112621    0.005558
   -8   -5    0    7    4    0.025895    0.002814
   -8   -5    0    8    4    0.044339   -0.000002
   -8   -5    0    1    5   -0.063627    0.002404
   -8   -5    0    2    5    0.044971    0.025789
   -8   -5    0    3    5   -0.008284    0.029712
   -8   -5    0    4    5    0.016066   -0.014876
   -8   -5    0    5    5   -0.029342    0.009774
   -8   -5    0    6    5    0.030734    0.017474
   -8   -5    0    7    5   -0.050183    0.019854
   -8   -5    0    8    5   -0.019027   -0.029484
   -8   -5    0    1    6   -0.048008    0.034581
   -8   -5    0    2    6    0.090325   -0.000022
   -8   -5    0    3    6    0.145309    0.007477
   -8   -5    0    4    6   -0.012963   -0.010593
   -8   -5    0    5    6    0.036843   -0.022045
   -8   -5    0    6    6    0.000455   -0.038195
   -8   -5    0    7    6    0.187666    0.004288
   -8   -5    0    8    6   -0.010590    0.003782
   -8   -5    0    1    7    0.008443    0.029498
   -8   -5    0    2    7    0.145025   -0.008331
   -8   -5    0    3    7   -0.053028    0.000007
   -8   -5    0    4    7   -0.038897   -0.017004
   -8   -5    0    5    7   -0.089399    0.008443
   -8   -5    0    6    7    0.122513   -0.011485
   -8   -5    0    7    7   -0.022140   -0.003382
   -8   -5    0    8    7   -0.008850   -0.016643
   -8   -5    0    1    8   -0.016330   -0.015066
   -8   -5    0    2    8   -0.013305    0.010760
   -8   -5    0    3    8   -0.038878    0.016997
   -8   -5    0    4    8   -0.057534   -0.000002
   -8   -5    0    5    8    0.000350   -0.015960
   -8   -5    0    6    8    0.086668    0.007071
   -8   -5    0    7    8    0.015079   -0.011624
   -8   -5    0    8    8    0.018006   -0.019793
   -8   -4    0    1    1    0.059982   -0.030588
   -8   -4    0    2    1   -0.044221   -0.040448
   -8   -4    0    3    1    0.036595    0.006755
   -8   -4    0    4    1    0.010097   -0.032178
   -8   -4    0    5    1   -0.000197   -0.002205
   -8   -4    0    6    1   -0.057622   -0.029436
   -8   -4    0    7    1    0.061690    0.014497
   -8   -4    0    8    1    0.003282   -0.027309
   -8   -4    0    1    2   -0.047471    0.037343
   -8   -4    0    2    2   -0.008277    0.041307
   -8   -4    0    3    2    0.038174   -0.000957
   -8   -4    0    4    2   -0.038759   -0.004688
   -8   -4    0    5    2    0.055963   -0.023749
   -8   -4    0    6    2   -0.043542   -0.000028
   -8   -4    0    7    2    0.100522   -0.004584
   -8   -4    0    8    2    0.056472    0.000924
   -8   -4    0    1    3    0.043797    0.032211
   -8   -4    0    2    3    0.008604    0.000080
   -8   -4    0    3    3    0.018644   -0.001985
   -8   -4    0    4    3   -0.017625    0.001568
   -8   -4    0    5    3   -0.061904    0.014749
   -8   -4    0    6    3    0.100987    0.004836
   -8   -4    0    7    3    0.048136    0.000012
   -8   -4    0    8    3   -0.004217    0.006867
   -8   -4    0    1    4    0.010443   -0.005735
   -8   -4    0    2    4    0.005859    0.005164
   -8   -4    0    3    4   -0.059136    0.024051
   -8   -4    0    4    4   -0.029637    0.013844
   -8   -4    0    5    4   -0.003074   -0.027114
   -8   -4    0    6    4    0.056766   -0.001275
   -8   -4    0    7    4   -0.004202   -0.006876
   -8   -4    0    8    4    0.051187   -0.000005
   -8   -4    0    1    5   -0.072380    0.002263
   -8   -4    0    2    5    0.010169    0.027715
   -8   -4    0    3    5    0.006083    0.028859
   -8   -4    0    4    5   -0.090680   -0.002400
   -8   -4    0    5    5   -0.017922    0.030520
   -8   -4    0    6    5    0.050151    0.045735
   -8   -4    0    7    5   -0.043604    0.032453
   -8   -4    0    8    5   -0.010694   -0.005555
   -8   -4    0    1    6   -0.013107    0.032881
   -8   -4    0    2    6    0.054680   -0.000015
   -8   -4    0    3    6   -0.001281   -0.001659
   -8   -4    0    4    6   -0.041909    0.003560
   -8   -4    0    5    6    0.047539   -0.047713
   -8   -4    0    6    6   -0.008267   -0.041264
   -8   -4    0    7    6    0.008122    0.000555
   -8   -4    0    8    6    0.005422   -0.005505
   -8   -4    0    1    7   -0.005897    0.028600
   -8   -4    0    2    7   -0.001910    0.001281
   -8   -4    0    3    7   -0.118790    0.000013
   -8   -4    0    4    7   -0.074883    0.008462
   -8   -4    0    5    7   -0.036815    0.006989
   -8   -4    0    6    7    0.038116    0.000302
   -8   -4    0    7    7    0.018645    0.002019
   -8   -4    0    8    7   -0.059151   -0.024057
   -8   -4    0    1    8    0.090428   -0.002619
   -8   -4    0    2    8   -0.042419   -0.003297
   -8   -4    0    3    8   -0.074870   -0.008469
   -8   -4    0    4    8    0.028421   -0.000003
   -8   -4    0    5    8   -0.009895   -0.031997
   -8   -4    0    6    8   -0.039491    0.005254
   -8   -4    0    7    8   -0.017613   -0.001571
   -8   -4    0    8    8   -0.029635   -0.013854
   -8   -3    0    1    1    0.059508   -0.041657
   -8   -3    0    2    1   -0.063104   -0.017925
   -8   -3    0    3    1   -0.068389   -0.004903
   -8   -3    0    4    1    0.046034   -0.020437
   -8   -3    0    5    1    0.024124   -0.002063
   -8   -3    0    6    1   -0.050243   -0.032639
   -8   -3    0    7    1   -0.041194   -0.011305
   -8   -3    0    8    1    0.046373   -0.042634
   -8   -3    0    1    2   -0.072149    0.012323
   -8   -3    0    2    2   -0.000099    0.038090
   -8   -3    0    3    2   -0.085762    0.001034
   -8   -3    0    4    2    0.001920    0.003707
   -8   -3    0    5    2    0.048380   -0.023337
   -8   -3    0    6    2   -0.014005   -0.000035
   -8   -3    0    7    2   -0.053906    0.004098
   -8   -3    0    8    2   -0.030854   -0.010274
   -8   -3    0    1    3   -0.032691    0.038509
   -8   -3    0    2    3   -0.058942   -0.011964
   -8   -3    0    3    3   -0.087626   -0.003438
   -8   -3    0    4    3    0.044955    0.037849
   -8   -3    0    5    3    0.041009   -0.011082
   -8   -3    0    6    3   -0.053799   -0.003515
   -8   -3    0    7    3   -0.031292    0.000007
   -8   -3    0    8    3    0.061008    0.024586
   -8   -3    0    1    4    0.100936    0.003493
   -8   -3    0    2    4   -0.072891    0.005312
   -8   -3    0    3    4    0.000150   -0.033799
   -8   -3    0    4    4    0.073092   -0.000334
   -8   -3    0    5    4   -0.046159   -0.042449
   -8   -3    0    6    4   -0.031353    0.010157
   -8   -3    0    7    4    0.061025   -0.024593
   -8   -3    0    8    4   -0.018647   -0.000003
   -8   -3    0    1    5   -0.067403    0.002115
   -8   -3    0    2    5    0.070101   -0.004417
   -8   -3    0    3    5    0.069539    0.025182
   -8   -3    0    4    5   -0.030396    0.010681
   -8   -3    0    5    5   -0.018346    0.041592
   -8   -3    0    6    5    0.076838    0.023396
   -8   -3    0    7    5    0.032862    0.038731
   -8   -3    0    8    5   -0.101204    0.003661
   -8   -3    0    1    6   -0.069544    0.000737
   -8   -3    0    2    6   -0.004080   -0.000005
   -8   -3    0    3    6   -0.011189    0.003479
   -8   -3    0    4    6    0.039242   -0.004084
   -8   -3    0    5    6    0.064361   -0.022572
   -8   -3    0    6    6   -0.000145   -0.038050
   -8   -3    0    7    6   -0.059648    0.012552
   -8   -3    0    8    6   -0.071775   -0.005030
   -8   -3    0    1    7   -0.069357    0.024914
   -8   -3    0    2    7   -0.011191   -0.003238
   -8   -3    0    3    7   -0.145595    0.000012
   -8   -3    0    4    7   -0.047803    0.042301
   -8   -3    0    5    7    0.068183   -0.004668
   -8   -3    0    6    7   -0.086629   -0.001275
   -8   -3    0    7    7   -0.087628    0.003466
   -8   -3    0    8    7    0.000135    0.033789
   -8   -3    0    1    8    0.030188    0.010461
   -8   -3    0    2    8    0.040356    0.003535
   -8   -3    0    3    8   -0.047798   -0.042308
   -8   -3    0    4    8    0.076577   -0.000001
   -8   -3    0    5    8   -0.045888   -0.020250
   -8   -3    0    6    8    0.002509   -0.003685
   -8   -3    0    7    8    0.044962   -0.037849
   -8   -3    0    8    8    0.073097    0.000331
   -8   -2    0    1    1    0.077275   -0.004942
   -8   -2    0    2    1   -0.051458    0.005738
   -8   -2    0    3    1   -0.020358    0.004346
   -8   -2    0    4    1    0.022907   -0.032351
   -8   -2    0    5    1   -0.002777   -0.001943
   -8   -2    0    6    1   -0.076079   -0.002698
   -8   -2    0    7    1   -0.015512   -0.006960
   -8   -2    0    8    1   -0.023492   -0.037773
   -8   -2    0    1    2   -0.037604   -0.009264
   -8   -2    0    2    2    0.014005    0.029106
   -8   -2    0    3    2    0.093147   -0.001885
   -8   -2    0    4    2   -0.070773   -0.001019
   -8   -2    0    5    2    0.069992    0.007323
   -8   -2    0    6    2    0.006565   -0.000038
   -8   -2    0    7    2    0.072697    0.003403
   -8   -2    0    8    2   -0.001248   -0.003090
   -8   -2    0    1    3    0.000304   -0.000622
   -8   -2    0    2    3    0.051391   -0.003276
   -8   -2    0    3    3   -0.069731    0.004742
   -8   -2    0    4    3    0.004150    0.027978
   -8   -2    0    5    3    0.015380   -0.006802
   -8   -2    0    6    3    0.073527   -0.003324
   -8   -2    0    7    3    0.020894    0.000003
   -8   -2    0    8    3    0.043250    0.031612
   -8   -2    0    1    4    0.015347    0.026533
   -8   -2    0    2    4    0.057609    0.007538
   -8   -2    0    3    4   -0.050589   -0.042103
   -8   -2    0    4    4    0.014634   -0.004057
   -8   -2    0    5    4    0.023678   -0.037624
   -8   -2    0    6    4   -0.002019    0.003447
   -8   -2    0    7    4    0.043267   -0.031610
   -8   -2    0    8    4    0.066036    0.000006
   -8   -2    0    1    5   -0.052661    0.001981
   -8   -2    0    2    5   -0.011526   -0.018793
   -8   -2    0    3    5    0.026000    0.032654
   -8   -2    0    4    5    0.002805    0.016755
   -8   -2    0    5    5   -0.000535    0.004892
   -8   -2    0    6    5    0.045214    0.000292
   -8   -2    0    7    5   -0.000182   -0.000459
   -8   -2    0    8    5   -0.015598    0.026665
   -8   -2    0    1    6    0.010492   -0.011090
   -8   -2    0    2    6   -0.049980    0.000007
   -8   -2    0    3    6    0.078181    0.003013
   -8   -2    0    4    6   -0.086897    0.003963
   -8   -2    0    5    6    0.049749   -0.000481
   -8   -2    0    6    6    0.013913   -0.029076
   -8   -2    0    7    6    0.051138    0.003392
   -8   -2    0    8    6    0.057093   -0.007369
   -8   -2    0    1    7   -0.025852    0.032420
   -8   -2    0    2    7    0.079101   -0.002554
   -8   -2    0    3    7   -0.103214    0.000005
   -8   -2    0    4    7   -0.066562    0.034138
   -8   -2    0    5    7    0.020193    0.004547
   -8   -2    0    6    7    0.093276    0.001794
   -8   -2    0    7    7   -0.069736   -0.004729
   -8   -2    0    8    7   -0.050603    0.042092
   -8   -2    0    1    8   -0.002940    0.016570
   -8   -2    0    2    8   -0.087331   -0.004395
   -8   -2    0    3    8   -0.066566   -0.034149
   -8   -2    0    4    8   -0.076415   -0.000003
   -8   -2    0    5    8   -0.022837   -0.032193
   -8   -2    0    6    8   -0.070789    0.000621
   -8   -2    0    7    8    0.004151   -0.027980
   -8   -2    0    8    8    0.014645    0.004064
   -8   -1    0    1    1    0.021151    0.023901
   -8   -1    0    2    1    0.070026    0.014125
   -8   -1    0    3    1    0.053962   -0.010021
   -8   -1    0    4    1    0.043019    0.010202
   -8   -1    0    5    1    0.030529   -0.001864
   -8   -1    0    6    1    0.023458    0.011099
   -8   -1    0    7    1    0.018571    0.019574
   -8   -1    0    8    1    0.037779   -0.005507
   -8   -1    0    1    2    0.063148   -0.015267
   -8   -1    0    2    2    0.031383    0.015735
   -8   -1    0    3    2    0.040705   -0.000003
   -8   -1    0    4    2   -0.014770    0.007486
   -8   -1    0    5    2   -0.028808    0.019608
   -8   -1    0    6    2    0.001629   -0.000036
   -8   -1    0    7    2   -0.024472   -0.000999
   -8   -1    0    8    2   -0.028364   -0.005152
   -8   -1    0    1    3    0.012953   -0.006233
   -8   -1    0    2    3   -0.034918    0.001316
   -8   -1    0    3    3    0.053474    0.008691
   -8   -1    0    4    3   -0.028782    0.004818
   -8   -1    0    5    3   -0.018632    0.019635
   -8   -1    0    6    3   -0.024749    0.000621
   -8   -1    0    7    3    0.140493    0.000003
   -8   -1    0    8    3    0.055309    0.012962
   -8   -1    0    1    4   -0.011704   -0.015033
   -8   -1    0    2    4   -0.045740    0.000017
   -8   -1    0    3    4   -0.037959   -0.020852
   -8   -1    0    4    4   -0.068635    0.000485
   -8   -1    0    5    4   -0.037651   -0.005427
   -8   -1    0    6    4   -0.027414    0.005042
   -8   -1    0    7    4    0.055326   -0.012949
   -8   -1    0    8    4    0.018140    0.000017
   -8   -1    0    1    5   -0.079689    0.001884
   -8   -1    0    2    5   -0.082535   -0.017620
   -8   -1    0    3    5    0.024901    0.014967
   -8   -1    0    4    5   -0.035046    0.000158
   -8   -1    0    5    5   -0.056630   -0.023929
   -8   -1    0    6    5   -0.060089   -0.007233
   -8   -1    0    7    5   -0.012902   -0.006162
   -8   -1    0    8    5    0.011510   -0.014962
   -8   -1    0    1    6    0.077843   -0.009031
   -8   -1    0    2    6   -0.053773    0.000019
   -8   -1    0    3    6    0.043816    0.001768
   -8   -1    0    4    6    0.043969    0.004599
   -8   -1    0    5    6   -0.067214    0.006348
   -8   -1    0    6    6    0.031260   -0.015719
   -8   -1    0    7    6   -0.033762   -0.001347
   -8   -1    0    8    6   -0.046531   -0.000356
   -8   -1    0    1    7   -0.024813    0.014808
   -8   -1    0    2    7    0.043825   -0.001075
   -8   -1    0    3    7    0.038133   -0.000003
   -8   -1    0    4    7   -0.051144   -0.004616
   -8   -1    0    5    7   -0.054062   -0.009890
   -8   -1    0    6    7    0.040754    0.000020
   -8   -1    0    7    7    0.053467   -0.008689
   -8   -1    0    8    7   -0.037969    0.020847
   -8   -1    0    1    8    0.035002    0.000046
   -8   -1    0    2    8    0.044460   -0.004617
   -8   -1    0    3    8   -0.051156    0.004598
   -8   -1    0    4    8   -0.144681   -0.000012
   -8   -1    0    5    8   -0.043043    0.010298
   -8   -1    0    6    8   -0.016162   -0.007424
   -8   -1    0    7    8   -0.028785   -0.004822
   -8   -1    0    8    8   -0.068618   -0.000476
   -8    0    0    1    1    0.030946    0.000000
   -8    0    0    2    1    0.075973    0.011039
   -8    0    0    3    1    0.089462    0.009784
   -8    0    0    4    1    0.017983    0.012894
   -8    0    0    5    1   -0.001156   -0.001842
   -8    0    0    6    1    0.065550    0.009513
   -8    0    0    7    1    0.064991    0.014226
   -8    0    0    8    1    0.078929    0.008194
   -8    0    0    1    2    0.075973   -0.011039
   -8    0    0    2    2    0.037501   -0.000000
   -8    0    0    3    2    0.067926   -0.009783
   -8    0    0    4    2    0.036451    0.003164
   -8    0    0    5    2   -0.067781    0.017887
   -8    0    0    6    2   -0.028732   -0.000029
   -8    0    0    7    2    0.005298   -0.006887
   -8    0    0    8    2   -0.025528    0.008855
   -8    0    0    1    3    0.089462   -0.009784
   -8    0    0    2    3    0.067926    0.009783
   -8    0    0    3    3    0.088072    0.000000
   -8    0    0    4    3   -0.084466   -0.031093
   -8    0    0    5    3   -0.064974    0.014173
   -8    0    0    6    3    0.004711    0.006269
   -8    0    0    7    3    0.204841    0.000005
   -8    0    0    8    3   -0.054631   -0.017417
   -8    0    0    1    4    0.017983   -0.012894
   -8    0    0    2    4    0.036451   -0.003164
   -8    0    0    3    4   -0.084466    0.031093
   -8    0    0    4    4   -0.111329   -0.000000
   -8    0    0    5    4   -0.078885    0.008180
   -8    0    0    6    4   -0.026464   -0.009055
   -8    0    0    7    4   -0.054617    0.017437
   -8    0    0    8    4   -0.040578    0.000019
   -8    0    0    1    5   -0.001156    0.001842
   -8    0    0    2    5   -0.067781   -0.017887
   -8    0    0    3    5   -0.064974   -0.014173
   -8    0    0    4    5   -0.078885   -0.008180
   -8    0    0    5    5   -0.046827   -0.000000
   -8    0    0    6    5   -0.073043   -0.003127
   -8    0    0    7    5   -0.089487   -0.009819
   -8    0    0    8    5   -0.018099   -0.012905
   -8    0    0    1    6    0.065550   -0.009513
   -8    0    0    2    6   -0.028732    0.000029
   -8    0    0    3    6    0.004711   -0.006269
   -8    0    0    4    6   -0.026464    0.009055
   -8    0    0    5    6   -0.073043    0.003127
   -8    0    0    6    6    0.037368    0.000000
   -8    0    0    7    6    0.068084   -0.009919
   -8    0    0    8    6    0.036874    0.002878
   -8    0    0    1    7    0.064991   -0.014226
   -8    0    0    2    7    0.005298    0.006887
   -8    0    0    3    7    0.204841   -0.000005
   -8    0    0    4    7   -0.054617   -0.017437
   -8    0    0    5    7   -0.089487    0.009819
   -8    0    0    6    7    0.068084    0.009919
   -8    0    0    7    7    0.088064    0.000000
   -8    0    0    8    7   -0.084471   -0.031091
   -8    0    0    1    8    0.078929   -0.008194
   -8    0    0    2    8   -0.025528   -0.008855
   -8    0    0    3    8   -0.054631    0.017417
   -8    0    0    4    8   -0.040578   -0.000019
   -8    0    0    5    8   -0.018099    0.012905
   -8    0    0    6    8    0.036874   -0.002878
   -8    0    0    7    8   -0.084471    0.031091
   -8    0    0    8    8   -0.111312   -0.000000
   -7   -8    0    1    1    0.028154   -0.030179
   -7   -8    0    2    1   -0.061666    0.006627
   -7   -8    0    3    1   -0.030223    0.036005
   -7   -8    0    4    1    0.024377    0.007584
   -7   -8    0    5    1   -0.017843   -0.002562
   -7   -8    0    6    1   -0.014119    0.003449
   -7   -8    0    7    1    0.005920    0.017153
   -7   -8    0    8    1    0.037672    0.028898
   -7   -8    0    1    2   -0.062661   -0.008768
   -7   -8    0    2    2    0.032562    0.015879
   -7   -8    0    3    2    0.034761   -0.011393
   -7   -8    0    4    2    0.010596   -0.009755
   -7   -8    0    5    2    0.011419    0.011234
   -7   -8    0    6    2    0.042565    0.000006
   -7   -8    0    7    2    0.095867    0.002552
   -7   -8    0    8    2    0.010902    0.017235
   -7   -8    0    1    3   -0.026925   -0.018532
   -7   -8    0    2    3    0.009010    0.000884
   -7   -8    0    3    3   -0.043685   -0.004882
   -7   -8    0    4    3    0.039190   -0.015277
   -7   -8    0    5    3   -0.006037    0.017300
   -7   -8    0    6    3    0.095103   -0.001900
   -7   -8    0    7    3   -0.028578   -0.000001
   -7   -8    0    8    3    0.014397   -0.018888
   -7   -8    0    1    4   -0.048887   -0.027481
   -7   -8    0    2    4    0.016544   -0.016757
   -7   -8    0    3    4    0.017679    0.015089
   -7   -8    0    4    4    0.020341   -0.004747
   -7   -8    0    5    4   -0.037660    0.029050
   -7   -8    0    6    4    0.011409   -0.017594
   -7   -8    0    7    4    0.014387    0.018874
   -7   -8    0    8    4   -0.055957   -0.000011
   -7   -8    0    1    5    0.063825    0.002586
   -7   -8    0    2    5    0.034824   -0.013671
   -7   -8    0    3    5   -0.009197   -0.017113
   -7   -8    0    4    5    0.103362   -0.032382
   -7   -8    0    5    5   -0.049875    0.030159
   -7   -8    0    6    5    0.065638    0.000103
   -7   -8    0    7    5    0.026994   -0.018400
   -7   -8    0    8    5    0.048847   -0.027334
   -7   -8    0    1    6   -0.036443   -0.007140
   -7   -8    0    2    6   -0.046818   -0.000023
   -7   -8    0    3    6    0.067460   -0.013512
   -7   -8    0    4    6    0.030764   -0.006562
   -7   -8    0    5    6    0.064814   -0.000009
   -7   -8    0    6    6    0.032707   -0.015863
   -7   -8    0    7    6    0.009744   -0.001055
   -7   -8    0    8    6    0.017793    0.016547
   -7   -8    0    1    7    0.009228   -0.017176
   -7   -8    0    2    7    0.067076    0.013558
   -7   -8    0    3    7    0.027311    0.000005
   -7   -8    0    4    7    0.037787   -0.033387
   -7   -8    0    5    7    0.030152    0.036083
   -7   -8    0    6    7    0.034305    0.011639
   -7   -8    0    7    7   -0.043679    0.004879
   -7   -8    0    8    7    0.017682   -0.015092
   -7   -8    0    1    8   -0.103555   -0.032491
   -7   -8    0    2    8    0.031968    0.006616
   -7   -8    0    3    8    0.037803    0.033399
   -7   -8    0    4    8    0.002591    0.000014
   -7   -8    0    5    8   -0.024212    0.007677
   -7   -8    0    6    8    0.011365    0.009694
   -7   -8    0    7    8    0.039199    0.015271
   -7   -8    0    8    8    0.020325    0.004753
   -7   -7    0    1    1    0.012614   -0.004844
   -7   -7    0    2    1   -0.016185    0.001061
   -7   -7    0    3    1   -0.054902    0.024579
   -7   -7    0    4    1   -0.020630   -0.010692
   -7   -7    0    5    1    0.011474   -0.002473
   -7   -7    0    6    1   -0.059487   -0.014709
   -7   -7    0    7    1    0.052321    0.038436
   -7   -7    0    8    1    0.001100   -0.000331
   -7   -7    0    1    2   -0.010687   -0.005063
   -7   -7    0    2    2    0.006768    0.029358
   -7   -7    0    3    2    0.063283   -0.004861
   -7   -7    0    4    2    0.039304   -0.005507
   -7   -7    0    5    2    0.054459   -0.005156
   -7   -7    0    6    2    0.017051   -0.000006
   -7   -7    0    7    2   -0.028330    0.003955
   -7   -7    0    8    2    0.013865    0.001203
   -7   -7    0    1    3   -0.087318    0.013523
   -7   -7    0    2    3   -0.012406   -0.008652
   -7   -7    0    3    3    0.014193    0.004270
   -7   -7    0    4    3    0.056018   -0.009073
   -7   -7    0    5    3   -0.052493    0.038659
   -7   -7    0    6    3   -0.028126   -0.003676
   -7   -7    0    7    3    0.001415    0.000007
   -7   -7    0    8    3    0.033894   -0.016281
   -7   -7    0    1    4   -0.061690   -0.022694
   -7   -7    0    2    4    0.044952   -0.000980
   -7   -7    0    3    4    0.028660    0.020683
   -7   -7    0    4    4    0.004112    0.012988
   -7   -7    0    5    4   -0.000996   -0.000120
   -7   -7    0    6    4    0.013331   -0.001640
   -7   -7    0    7    4    0.033889    0.016269
   -7   -7    0    8    4    0.030408   -0.000003
   -7   -7    0    1    5    0.022518    0.002517
   -7   -7    0    2    5   -0.041509   -0.016998
   -7   -7    0    3    5    0.005695    0.020127
   -7   -7    0    4    5    0.051901   -0.033253
   -7   -7    0    5    5   -0.065391    0.004804
   -7   -7    0    6    5    0.017910    0.004907
   -7   -7    0    7    5    0.087448    0.013726
   -7   -7    0    8    5    0.061555   -0.022502
   -7   -7    0    1    6    0.041420   -0.010476
   -7   -7    0    2    6    0.015486   -0.000025
   -7   -7    0    3    6    0.008514    0.001932
   -7   -7    0    4    6    0.012284   -0.004222
   -7   -7    0    5    6    0.015058   -0.004511
   -7   -7    0    6    6    0.006881   -0.029328
   -7   -7    0    7    6   -0.012684    0.008218
   -7   -7    0    8    6    0.045020    0.000799
   -7   -7    0    1    7   -0.005588    0.019987
   -7   -7    0    2    7    0.009015   -0.001580
   -7   -7    0    3    7   -0.044645    0.000005
   -7   -7    0    4    7    0.021661   -0.018824
   -7   -7    0    5    7    0.054756    0.024728
   -7   -7    0    6    7    0.063480    0.005487
   -7   -7    0    7    7    0.014199   -0.004263
   -7   -7    0    8    7    0.028660   -0.020685
   -7   -7    0    1    8   -0.052152   -0.033419
   -7   -7    0    2    8    0.011678    0.004400
   -7   -7    0    3    8    0.021679    0.018826
   -7   -7    0    4    8    0.073414    0.000004
   -7   -7    0    5    8    0.020853   -0.010550
   -7   -7    0    6    8    0.040259    0.005642
   -7   -7    0    7    8    0.056031    0.009060
   -7   -7    0    8    8    0.004101   -0.012986
   -7   -6    0    1    1   -0.005669   -0.034461
   -7   -6    0    2    1    0.060900    0.011128
   -7   -6    0    3    1    0.044625    0.003387
   -7   -6    0    4    1   -0.020723   -0.012359
   -7   -6    0    5    1   -0.012549   -0.002350
   -7   -6    0    6    1    0.011291   -0.002378
   -7   -6    0    7    1    0.062599    0.015574
   -7   -6    0    8    1    0.002979    0.004145
   -7   -6    0    1    2    0.057121   -0.014977
   -7   -6    0    2    2   -0.011096    0.038351
   -7   -6    0    3    2   -0.083154    0.004843
   -7   -6    0    4    2    0.017542   -0.005740
   -7   -6    0    5    2   -0.017460    0.007983
   -7   -6    0    6    2    0.005697   -0.000018
   -7   -6    0    7    2   -0.076436    0.008213
   -7   -6    0    8    2    0.046611   -0.004281
   -7   -6    0    1    3   -0.044736    0.023230
   -7   -6    0    2    3   -0.044847   -0.006365
   -7   -6    0    3    3    0.003781    0.000309
   -7   -6    0    4    3    0.022159   -0.004772
   -7   -6    0    5    3   -0.062802    0.015836
   -7   -6    0    6    3   -0.076290   -0.008399
   -7   -6    0    7    3    0.049263    0.000014
   -7   -6    0    8    3    0.084946   -0.005540
   -7   -6    0    1    4   -0.079568   -0.025651
   -7   -6    0    2    4    0.032119    0.000630
   -7   -6    0    3    4    0.036806    0.032320
   -7   -6    0    4    4    0.051523    0.014403
   -7   -6    0    5    4   -0.002799    0.004376
   -7   -6    0    6    4    0.048007    0.004023
   -7   -6    0    7    4    0.084950    0.005530
   -7   -6    0    8    4   -0.010493   -0.000002
   -7   -6    0    1    5   -0.015894    0.002408
   -7   -6    0    2    5   -0.078107   -0.016254
   -7   -6    0    3    5   -0.012022    0.005907
   -7   -6    0    4    5    0.045251   -0.011652
   -7   -6    0    5    5   -0.083635    0.034406
   -7   -6    0    6    5   -0.053316   -0.005648
   -7   -6    0    7    5    0.044904    0.023474
   -7   -6    0    8    5    0.079358   -0.025445
   -7   -6    0    1    6    0.072582   -0.007733
   -7   -6    0    2    6    0.055897   -0.000022
   -7   -6    0    3    6   -0.107858    0.005111
   -7   -6    0    4    6   -0.033733   -0.005669
   -7   -6    0    5    6   -0.058655    0.004863
   -7   -6    0    6    6   -0.011030   -0.038311
   -7   -6    0    7    6   -0.044400    0.005818
   -7   -6    0    8    6    0.031020   -0.000429
   -7   -6    0    1    7    0.012186    0.005712
   -7   -6    0    2    7   -0.107972   -0.004736
   -7   -6    0    3    7   -0.045297    0.000008
   -7   -6    0    4    7    0.001883   -0.014090
   -7   -6    0    5    7   -0.044824    0.003580
   -7   -6    0    6    7   -0.082695   -0.004052
   -7   -6    0    7    7    0.003784   -0.000287
   -7   -6    0    8    7    0.036798   -0.032320
   -7   -6    0    1    8   -0.045523   -0.011853
   -7   -6    0    2    8   -0.034821    0.005513
   -7   -6    0    3    8    0.001902    0.014084
   -7   -6    0    4    8   -0.007587   -0.000003
   -7   -6    0    5    8    0.020960   -0.012185
   -7   -6    0    6    8    0.016137    0.005886
   -7   -6    0    7    8    0.022174    0.004759
   -7   -6    0    8    8    0.051519   -0.014411
   -7   -5    0    1    1   -0.006858   -0.041099
   -7   -5    0    2    1    0.019913    0.009299
   -7   -5    0    3    1    0.012751    0.024059
   -7   -5    0    4    1   -0.005901   -0.009015
   -7   -5    0    5    1    0.030369   -0.002212
   -7   -5    0    6    1    0.039772    0.011810
   -7   -5    0    7    1    0.056522    0.006284
   -7   -5    0    8    1   -0.029276   -0.021669
   -7   -5    0    1    2    0.012701   -0.010286
   -7   -5    0    2    2   -0.014844    0.041464
   -7   -5    0    3    2   -0.014905    0.004705
   -7   -5    0    4    2    0.019712   -0.001315
   -7   -5    0    5    2   -0.040723    0.020173
   -7   -5    0    6    2   -0.021096   -0.000028
   -7   -5    0    7    2    0.023551    0.001049
   -7   -5    0    8    2    0.008361   -0.006142
   -7   -5    0    1    3    0.001543    0.027683
   -7   -5    0    2    3    0.024739   -0.006057
   -7   -5    0    3    3   -0.002363    0.001830
   -7   -5    0    4    3    0.038923    0.016117
   -7   -5    0    5    3   -0.056724    0.006549
   -7   -5    0    6    3    0.023127   -0.001680
   -7   -5    0    7    3    0.055060    0.000014
   -7   -5    0    8    3    0.020718   -0.009685
   -7   -5    0    1    4   -0.016962   -0.013859
   -7   -5    0    2    4   -0.081467    0.005400
   -7   -5    0    3    4    0.043036    0.006473
   -7   -5    0    4    4    0.065242    0.014570
   -7   -5    0    5    4    0.029497   -0.021444
   -7   -5    0    6    4    0.008206    0.006452
   -7   -5    0    7    4    0.020730    0.009674
   -7   -5    0    8    4    0.090516   -0.000006
   -7   -5    0    1    5   -0.067359    0.002274
   -7   -5    0    2    5    0.025765    0.002414
   -7   -5    0    3    5   -0.072320    0.015526
   -7   -5    0    4    5    0.008467   -0.018318
   -7   -5    0    5    5   -0.084778    0.041037
   -7   -5    0    6    5   -0.011894   -0.003975
   -7   -5    0    7    5   -0.001364    0.027941
   -7   -5    0    8    5    0.016702   -0.013664
   -7   -5    0    1    6   -0.030836    0.013236
   -7   -5    0    2    6    0.065502   -0.000015
   -7   -5    0    3    6    0.106737    0.012811
   -7   -5    0    4    6    0.117926   -0.005782
   -7   -5    0    5    6   -0.014722   -0.000047
   -7   -5    0    6    6   -0.014834   -0.041421
   -7   -5    0    7    6    0.024723    0.005505
   -7   -5    0    8    6   -0.080451   -0.004927
   -7   -5    0    1    7    0.072517    0.015300
   -7   -5    0    2    7    0.107096   -0.013022
   -7   -5    0    3    7   -0.046027    0.000013
   -7   -5    0    4    7    0.024207    0.025236
   -7   -5    0    5    7   -0.012976    0.024267
   -7   -5    0    6    7   -0.014926   -0.004286
   -7   -5    0    7    7   -0.002363   -0.001799
   -7   -5    0    8    7    0.043023   -0.006476
   -7   -5    0    1    8   -0.008725   -0.018531
   -7   -5    0    2    8    0.118556    0.005587
   -7   -5    0    3    8    0.024224   -0.025241
   -7   -5    0    4    8    0.020951   -0.000004
   -7   -5    0    5    8    0.006114   -0.008825
   -7   -5    0    6    8    0.019898    0.001113
   -7   -5    0    7    8    0.038937   -0.016126
   -7   -5    0    8    8    0.065240   -0.014582
   -7   -4    0    1    1   -0.015159   -0.040845
   -7   -4    0    2    1   -0.038767   -0.019181
   -7   -4    0    3    1    0.007954    0.011129
   -7   -4    0    4    1   -0.059353   -0.033648
   -7   -4    0    5    1    0.060503   -0.002076
   -7   -4    0    6    1   -0.027277    0.002988
   -7   -4    0    7    1    0.001756   -0.005983
   -7   -4    0    8    1   -0.068291   -0.026126
   -7   -4    0    1    2   -0.048850    0.019297
   -7   -4    0    2    2   -0.009141    0.038224
   -7   -4    0    3    2    0.070396    0.007658
   -7   -4    0    4    2    0.101719   -0.011352
   -7   -4    0    5    2    0.025389    0.008287
   -7   -4    0    6    2   -0.056415   -0.000035
   -7   -4    0    7    2   -0.023104    0.002556
   -7   -4    0    8    2   -0.027428    0.000688
   -7   -4    0    1    3    0.048101    0.016488
   -7   -4    0    2    3    0.026342    0.002116
   -7   -4    0    3    3    0.082077   -0.003515
   -7   -4    0    4    3   -0.004556    0.043042
   -7   -4    0    5    3   -0.001930   -0.005745
   -7   -4    0    6    3   -0.023036   -0.003228
   -7   -4    0    7    3    0.050814    0.000008
   -7   -4    0    8    3    0.027256    0.039056
   -7   -4    0    1    4   -0.035935   -0.003223
   -7   -4    0    2    4    0.095556   -0.000037
   -7   -4    0    3    4    0.005121   -0.036661
   -7   -4    0    4    4   -0.025064   -0.002316
   -7   -4    0    5    4    0.068518   -0.025930
   -7   -4    0    6    4   -0.028431   -0.000606
   -7   -4    0    7    4    0.027274   -0.039068
   -7   -4    0    8    4    0.050562   -0.000004
   -7   -4    0    1    5   -0.062614    0.002131
   -7   -4    0    2    5    0.032973    0.029181
   -7   -4    0    3    5   -0.092191    0.034536
   -7   -4    0    4    5   -0.042662    0.013762
   -7   -4    0    5    5   -0.093028    0.040785
   -7   -4    0    6    5    0.051406    0.024712
   -7   -4    0    7    5   -0.047941    0.016728
   -7   -4    0    8    5    0.035659   -0.003060
   -7   -4    0    1    6   -0.037467    0.038016
   -7   -4    0    2    6    0.045919   -0.000005
   -7   -4    0    3    6   -0.028411    0.004438
   -7   -4    0    4    6    0.000461   -0.004741
   -7   -4    0    5    6    0.042156   -0.029485
   -7   -4    0    6    6   -0.009187   -0.038184
   -7   -4    0    7    6    0.026434   -0.001977
   -7   -4    0    8    6    0.095532   -0.000138
   -7   -4    0    1    7    0.092387    0.034304
   -7   -4    0    2    7   -0.027968   -0.004928
   -7   -4    0    3    7    0.112864    0.000012
   -7   -4    0    4    7   -0.037092    0.027251
   -7   -4    0    5    7   -0.008172    0.011329
   -7   -4    0    6    7    0.071112   -0.008017
   -7   -4    0    7    7    0.082072    0.003540
   -7   -4    0    8    7    0.005103    0.036654
   -7   -4    0    1    8    0.042458    0.013560
   -7   -4    0    2    8    0.000451    0.005080
   -7   -4    0    3    8   -0.037086   -0.027254
   -7   -4    0    4    8   -0.028266   -0.000001
   -7   -4    0    5    8    0.059506   -0.033466
   -7   -4    0    6    8    0.101958    0.011659
   -7   -4    0    7    8   -0.004550   -0.043047
   -7   -4    0    8    8   -0.025058    0.002311
   -7   -3    0    1    1   -0.013573    0.014500
   -7   -3    0    2    1   -0.007525   -0.022501
   -7   -3    0    3    1   -0.093012   -0.013860
   -7   -3    0    4    1   -0.016903   -0.029043
   -7   -3    0    5    1    0.095164   -0.001960
   -7   -3    0    6    1    0.002764   -0.020086
   -7   -3    0    7    1   -0.097404    0.009877
   -7   -3    0    8    1   -0.078309   -0.041669
   -7   -3    0    1    2   -0.010568    0.020347
   -7   -3    0    2    2   -0.009348    0.029147
   -7   -3    0    3    2   -0.146027    0.002865
   -7   -3    0    4    2   -0.015593    0.008673
   -7   -3    0    5    2   -0.004820   -0.013800
   -7   -3    0    6    2   -0.057737   -0.000038
   -7   -3    0    7    2   -0.039851   -0.007496
   -7   -3    0    8    2    0.128298   -0.011512
   -7   -3    0    1    3   -0.022509    0.022404
   -7   -3    0    2    3    0.003455    0.000888
   -7   -3    0    3    3    0.047560    0.007352
   -7   -3    0    4    3    0.009618    0.025428
   -7   -3    0    5    3    0.097284    0.010057
   -7   -3    0    6    3   -0.040606    0.007511
   -7   -3    0    7    3    0.011239    0.000003
   -7   -3    0    8    3   -0.025664    0.038048
   -7   -3    0    1    4    0.055771    0.011779
   -7   -3    0    2    4    0.022452    0.013390
   -7   -3    0    3    4   -0.003032   -0.041463
   -7   -3    0    4    4    0.008072    0.001933
   -7   -3    0    5    4    0.078501   -0.041526
   -7   -3    0    6    4    0.128599    0.011188
   -7   -3    0    7    4   -0.025647   -0.038052
   -7   -3    0    8    4   -0.080728    0.000005
   -7   -3    0    1    5   -0.093698    0.002000
   -7   -3    0    2    5    0.046755    0.007069
   -7   -3    0    3    5    0.036730    0.053064
   -7   -3    0    4    5   -0.031441    0.013532
   -7   -3    0    5    5   -0.091398   -0.014550
   -7   -3    0    6    5    0.012514    0.028573
   -7   -3    0    7    5    0.022621    0.022590
   -7   -3    0    8    5   -0.056016    0.011891
   -7   -3    0    1    6   -0.049457    0.013286
   -7   -3    0    2    6    0.018580    0.000007
   -7   -3    0    3    6   -0.111371    0.007063
   -7   -3    0    4    6   -0.020143    0.011192
   -7   -3    0    5    6    0.011480   -0.030049
   -7   -3    0    6    6   -0.009441   -0.029117
   -7   -3    0    7    6    0.003943   -0.000000
   -7   -3    0    8    6    0.022354   -0.013471
   -7   -3    0    1    7   -0.036571    0.052859
   -7   -3    0    2    7   -0.112276   -0.007146
   -7   -3    0    3    7    0.020574    0.000005
   -7   -3    0    4    7   -0.007407    0.030414
   -7   -3    0    5    7    0.092835   -0.013692
   -7   -3    0    6    7   -0.146377   -0.003351
   -7   -3    0    7    7    0.047554   -0.007339
   -7   -3    0    8    7   -0.003047    0.041454
   -7   -3    0    1    8    0.031318    0.013371
   -7   -3    0    2    8   -0.018906   -0.011382
   -7   -3    0    3    8   -0.007413   -0.030421
   -7   -3    0    4    8    0.078799   -0.000001
   -7   -3    0    5    8    0.016966   -0.028899
   -7   -3    0    6    8   -0.015723   -0.008198
   -7   -3    0    7    8    0.009617   -0.025433
   -7   -3    0    8    8    0.008084   -0.001926
   -7   -2    0    1    1    0.005217    0.006744
   -7   -2    0    2    1   -0.042703    0.004176
   -7   -2    0    3    1   -0.046566   -0.025724
   -7   -2    0    4    1    0.029882    0.004252
   -7   -2    0    5    1    0.087788   -0.001882
   -7   -2    0    6    1   -0.005463   -0.000248
   -7   -2    0    7    1   -0.074561    0.000989
   -7   -2    0    8    1   -0.004524   -0.004019
   -7   -2    0    1    2   -0.043769   -0.006186
   -7   -2    0    2    2   -0.015434    0.015650
   -7   -2    0    3    2    0.027802    0.001349
   -7   -2    0    4    2   -0.012543    0.009431
   -7   -2    0    5    2    0.003161    0.008054
   -7   -2    0    6    2   -0.019454   -0.000036
   -7   -2    0    7    2    0.116691   -0.004800
   -7   -2    0    8    2   -0.017226   -0.004386
   -7   -2    0    1    3   -0.036736   -0.000702
   -7   -2    0    2    3    0.107126    0.005675
   -7   -2    0    3    3    0.013310    0.003425
   -7   -2    0    4    3    0.031320   -0.012163
   -7   -2    0    5    3    0.074510    0.001078
   -7   -2    0    6    3    0.116666    0.005029
   -7   -2    0    7    3   -0.067834    0.000003
   -7   -2    0    8    3    0.020309    0.009488
   -7   -2    0    1    4    0.023845   -0.001569
   -7   -2    0    2    4   -0.025595   -0.001147
   -7   -2    0    3    4   -0.020017   -0.001962
   -7   -2    0    4    4    0.038084   -0.005039
   -7   -2    0    5    4    0.004647   -0.003956
   -7   -2    0    6    4   -0.017811    0.004682
   -7   -2    0    7    4    0.020323   -0.009480
   -7   -2    0    8    4    0.049317    0.000016
   -7   -2    0    1    5   -0.053285    0.001901
   -7   -2    0    2    5    0.028269   -0.013822
   -7   -2    0    3    5    0.055426    0.005449
   -7   -2    0    4    5   -0.023177    0.011105
[...]
    9    4    0    2    7   -0.011813   -0.003327
    9    4    0    3    7    0.063844   -0.000012
    9    4    0    4    7   -0.052257   -0.020398
    9    4    0    5    7   -0.062907   -0.008188
    9    4    0    6    7   -0.097954   -0.012042
    9    4    0    7    7    0.004812    0.005556
    9    4    0    8    7   -0.063257    0.012120
    9    4    0    1    8   -0.079797    0.018832
    9    4    0    2    8    0.003571    0.006372
    9    4    0    3    8   -0.052264    0.020403
    9    4    0    4    8   -0.088639    0.000002
    9    4    0    5    8   -0.060848    0.004692
    9    4    0    6    8   -0.057834    0.011082
    9    4    0    7    8   -0.098242    0.013531
    9    4    0    8    8   -0.051987    0.021430
    9    5    0    1    1    0.076808    0.042444
    9    5    0    2    1   -0.028073   -0.015598
    9    5    0    3    1    0.061788   -0.010909
    9    5    0    4    1    0.009385    0.000566
    9    5    0    5    1   -0.263282   -0.002507
    9    5    0    6    1    0.053271   -0.020056
    9    5    0    7    1    0.083306    0.004152
    9    5    0    8    1    0.042691    0.005299
    9    5    0    1    2   -0.035375    0.017632
    9    5    0    2    2    0.007050   -0.029225
    9    5    0    3    2    0.115262    0.005368
    9    5    0    4    2    0.073014    0.012718
    9    5    0    5    2   -0.053677   -0.014032
    9    5    0    6    2    0.165496    0.000025
    9    5    0    7    2    0.124720   -0.007848
    9    5    0    8    2   -0.088966   -0.013474
    9    5    0    1    3    0.054757   -0.005374
    9    5    0    2    3    0.116897    0.003014
    9    5    0    3    3    0.055789    0.002732
    9    5    0    4    3   -0.034324   -0.022419
    9    5    0    5    3   -0.083214    0.003976
    9    5    0    6    3    0.125002    0.008183
    9    5    0    7    3    0.009403   -0.000002
    9    5    0    8    3   -0.049355   -0.013811
    9    5    0    1    4   -0.061219    0.018153
    9    5    0    2    4   -0.038771    0.015582
    9    5    0    3    4   -0.012517    0.009168
    9    5    0    4    4   -0.103534   -0.001969
    9    5    0    5    4   -0.042929    0.005141
    9    5    0    6    4   -0.087924    0.013110
    9    5    0    7    4   -0.049372    0.013814
    9    5    0    8    4   -0.028717   -0.000007
    9    5    0    1    5    0.053461    0.002469
    9    5    0    2    5    0.023569    0.002645
    9    5    0    3    5   -0.061967   -0.000710
    9    5    0    4    5   -0.000605   -0.001714
    9    5    0    5    5   -0.001177   -0.042397
    9    5    0    6    5    0.035827    0.025134
    9    5    0    7    5   -0.054897   -0.005541
    9    5    0    8    5    0.061420    0.018049
    9    5    0    1    6   -0.026519    0.008975
    9    5    0    2    6   -0.136221    0.000006
    9    5    0    3    6    0.171867    0.004645
    9    5    0    4    6    0.024672    0.013285
    9    5    0    5    6    0.033717   -0.023636
    9    5    0    6    6    0.007162    0.029195
    9    5    0    7    6    0.116306   -0.002768
    9    5    0    8    6   -0.038661   -0.015694
    9    5    0    1    7    0.061780   -0.000522
    9    5    0    2    7    0.170998   -0.005146
    9    5    0    3    7    0.024095   -0.000004
    9    5    0    4    7   -0.022790   -0.022526
    9    5    0    5    7   -0.061637   -0.011073
    9    5    0    6    7    0.114511   -0.005490
    9    5    0    7    7    0.055797   -0.002743
    9    5    0    8    7   -0.012502   -0.009162
    9    5    0    1    8    0.000683   -0.001584
    9    5    0    2    8    0.024435   -0.013057
    9    5    0    3    8   -0.022787    0.022536
    9    5    0    4    8   -0.019147    0.000003
    9    5    0    5    8   -0.009500    0.000432
    9    5    0    6    8    0.072590   -0.012285
    9    5    0    7    8   -0.034325    0.022427
    9    5    0    8    8   -0.103544    0.001964
    9    6    0    1    1    0.058936    0.012692
    9    6    0    2    1    0.013006    0.016093
    9    6    0    3    1    0.074660   -0.016057
    9    6    0    4    1    0.057165    0.015673
    9    6    0    5    1   -0.166428   -0.002582
    9    6    0    6    1   -0.052585    0.004136
    9    6    0    7    1    0.053664   -0.003282
    9    6    0    8    1    0.039151    0.024614
    9    6    0    1    2    0.008066   -0.015894
    9    6    0    2    2    0.025283   -0.015839
    9    6    0    3    2    0.019549   -0.000200
    9    6    0    4    2   -0.022127    0.015090
    9    6    0    5    2    0.051045    0.012235
    9    6    0    6    2    0.164048    0.000023
    9    6    0    7    2   -0.024623   -0.007445
    9    6    0    8    2    0.041998   -0.004286
    9    6    0    1    3    0.114969   -0.006934
    9    6    0    2    3   -0.084957    0.008833
    9    6    0    3    3   -0.081704   -0.000007
    9    6    0    4    3   -0.007425   -0.034773
    9    6    0    5    3   -0.053641   -0.003354
    9    6    0    6    3   -0.023694    0.008127
    9    6    0    7    3   -0.072706   -0.000002
    9    6    0    8    3   -0.036581   -0.021256
    9    6    0    1    4    0.013244    0.001513
    9    6    0    2    4    0.049859   -0.001033
    9    6    0    3    4   -0.015002    0.036569
    9    6    0    4    4    0.036006   -0.001457
    9    6    0    5    4   -0.039325    0.024556
    9    6    0    6    4    0.041253    0.004615
    9    6    0    7    4   -0.036597    0.021248
    9    6    0    8    4   -0.094930   -0.000017
    9    6    0    1    5    0.055489    0.002562
    9    6    0    2    5   -0.065176   -0.022220
    9    6    0    3    5   -0.092285   -0.029726
    9    6    0    4    5    0.039286   -0.006767
    9    6    0    5    5   -0.019082   -0.012665
    9    6    0    6    5   -0.003870   -0.007441
    9    6    0    7    5   -0.115043   -0.007003
    9    6    0    8    5   -0.013105    0.001495
    9    6    0    1    6    0.064506   -0.015343
    9    6    0    2    6   -0.140421   -0.000006
    9    6    0    3    6   -0.103359   -0.007842
    9    6    0    4    6   -0.027448    0.011374
    9    6    0    5    6   -0.011075    0.009041
    9    6    0    6    6    0.025426    0.015823
    9    6    0    7    6   -0.085984   -0.008770
    9    6    0    8    6    0.050976    0.001528
    9    6    0    1    7    0.092160   -0.029609
    9    6    0    2    7   -0.102735    0.007213
    9    6    0    3    7   -0.032908    0.000005
    9    6    0    4    7   -0.015215   -0.030893
    9    6    0    5    7   -0.074574   -0.016149
    9    6    0    6    7    0.019327    0.000121
    9    6    0    7    7   -0.081697    0.000005
    9    6    0    8    7   -0.014991   -0.036566
    9    6    0    1    8   -0.039304   -0.006713
    9    6    0    2    8   -0.027818   -0.011655
    9    6    0    3    8   -0.015203    0.030909
    9    6    0    4    8    0.000764    0.000010
    9    6    0    5    8   -0.057179    0.015615
    9    6    0    6    8   -0.021090   -0.015443
    9    6    0    7    8   -0.007420    0.034782
    9    6    0    8    8    0.035988    0.001450
    9    7    0    1    1    0.071953   -0.005109
    9    7    0    2    1    0.028341    0.022103
    9    7    0    3    1   -0.006403    0.025229
    9    7    0    4    1    0.021844    0.034403
    9    7    0    5    1   -0.094320   -0.002601
    9    7    0    6    1    0.051993    0.017569
    9    7    0    7    1    0.002958    0.009753
    9    7    0    8    1    0.038456    0.020798
    9    7    0    1    2    0.039907   -0.022290
    9    7    0    2    2    0.039518   -0.000000
    9    7    0    3    2   -0.088433   -0.014182
    9    7    0    4    2    0.057985    0.010556
    9    7    0    5    2   -0.057116    0.025010
    9    7    0    6    2    0.105617    0.000016
    9    7    0    7    2   -0.073729   -0.011788
    9    7    0    8    2   -0.000825    0.010882
    9    7    0    1    3    0.057531   -0.011117
    9    7    0    2    3    0.038641    0.005837
    9    7    0    3    3   -0.031423    0.002128
    9    7    0    4    3    0.025873   -0.032253
    9    7    0    5    3   -0.003009    0.009796
    9    7    0    6    3   -0.073072    0.012426
    9    7    0    7    3   -0.125004   -0.000003
    9    7    0    8    3    0.008361   -0.048238
    9    7    0    1    4   -0.045150   -0.012655
    9    7    0    2    4   -0.055560   -0.008875
    9    7    0    3    4   -0.003933    0.030341
    9    7    0    4    4   -0.041189    0.001236
    9    7    0    5    4   -0.038540    0.020853
    9    7    0    6    4   -0.000400   -0.010647
    9    7    0    7    4    0.008349    0.048224
    9    7    0    8    4    0.033893   -0.000018
    9    7    0    1    5    0.036907    0.002603
    9    7    0    2    5    0.013290   -0.024819
    9    7    0    3    5   -0.067389   -0.032964
    9    7    0    4    5    0.020715   -0.044064
    9    7    0    5    5   -0.006080    0.005112
    9    7    0    6    5   -0.035718   -0.014437
    9    7    0    7    5   -0.057532   -0.011080
    9    7    0    8    5    0.045203   -0.012583
    9    7    0    1    6   -0.017336   -0.017605
    9    7    0    2    6   -0.104657   -0.000016
    9    7    0    3    6    0.008990   -0.010912
    9    7    0    4    6    0.046183    0.007048
    9    7    0    5    6   -0.026394    0.014463
    9    7    0    6    6    0.039673    0.000000
    9    7    0    7    6    0.039146   -0.005889
    9    7    0    8    6   -0.055799    0.008915
    9    7    0    1    7    0.067340   -0.032936
    9    7    0    2    7    0.009190    0.010461
    9    7    0    3    7   -0.071517    0.000007
    9    7    0    4    7    0.035018   -0.013852
    9    7    0    5    7    0.006411    0.025221
    9    7    0    6    7   -0.087813    0.014032
    9    7    0    7    7   -0.031416   -0.002130
    9    7    0    8    7   -0.003928   -0.030343
    9    7    0    1    8   -0.020824   -0.044096
    9    7    0    2    8    0.045303   -0.007085
    9    7    0    3    8    0.035032    0.013871
    9    7    0    4    8    0.022587    0.000016
    9    7    0    5    8   -0.021761    0.034427
    9    7    0    6    8    0.057655   -0.010899
    9    7    0    7    8    0.025879    0.032256
    9    7    0    8    8   -0.041206   -0.001236
   10    4    0    1    1    0.105368    0.021877
   10    4    0    2    1    0.148965    0.021612
   10    4    0    3    1    0.031546   -0.034165
   10    4    0    4    1    0.113242    0.007663
   10    4    0    5    1   -0.197174   -0.002500
   10    4    0    6    1    0.105016    0.017424
   10    4    0    7    1   -0.029441   -0.006219
   10    4    0    8    1    0.064450    0.011918
   10    4    0    1    2    0.145414   -0.017904
   10    4    0    2    2    0.010346   -0.029208
   10    4    0    3    2   -0.015042    0.010431
   10    4    0    4    2   -0.071845    0.005050
   10    4    0    5    2   -0.107680    0.025414
   10    4    0    6    2    0.038753    0.000025
   10    4    0    7    2   -0.008656    0.004192
   10    4    0    8    2    0.063866   -0.009878
   10    4    0    1    3   -0.014037    0.006514
   10    4    0    2    3   -0.027224   -0.000571
   10    4    0    3    3   -0.052598   -0.001161
   10    4    0    4    3   -0.059999   -0.023978
   10    4    0    5    3    0.029526   -0.006426
   10    4    0    6    3   -0.008820   -0.004535
   10    4    0    7    3    0.004023   -0.000005
   10    4    0    8    3   -0.003133   -0.015628
   10    4    0    1    4    0.035890    0.014044
   10    4    0    2    4    0.024422    0.002602
   10    4    0    3    4   -0.051742    0.012332
   10    4    0    4    4   -0.020558   -0.008056
   10    4    0    5    4   -0.064705    0.011709
   10    4    0    6    4    0.063257    0.010107
   10    4    0    7    4   -0.003150    0.015631
   10    4    0    8    4    0.103592   -0.000006
   10    4    0    1    5    0.087182    0.002457
   10    4    0    2    5   -0.140416   -0.006832
   10    4    0    3    5    0.023801   -0.016401
   10    4    0    4    5   -0.011751    0.013118
   10    4    0    5    5    0.027390   -0.021833
   10    4    0    6    5   -0.143512   -0.011983
   10    4    0    7    5    0.013910    0.006311
   10    4    0    8    5   -0.035678    0.013892
   10    4    0    1    6    0.135694    0.003409
   10    4    0    2    6   -0.166938    0.000006
   10    4    0    3    6   -0.063356    0.007694
   10    4    0    4    6   -0.006908   -0.002359
   10    4    0    5    6   -0.144770    0.011992
   10    4    0    6    6    0.010458    0.029177
   10    4    0    7    6   -0.027016   -0.000392
   10    4    0    8    6    0.024995   -0.002657
   10    4    0    1    7   -0.023993   -0.016219
   10    4    0    2    7   -0.062546   -0.007809
   10    4    0    3    7   -0.004716   -0.000007
   10    4    0    4    7   -0.065317   -0.018576
   10    4    0    5    7   -0.031396   -0.034334
   10    4    0    6    7   -0.014209   -0.009911
   10    4    0    7    7   -0.052592    0.001152
   10    4    0    8    7   -0.051726   -0.012328
   10    4    0    1    8    0.011837    0.013284
   10    4    0    2    8   -0.007354    0.002763
   10    4    0    3    8   -0.065314    0.018581
   10    4    0    4    8   -0.027304    0.000004
   10    4    0    5    8   -0.113367    0.007481
   10    4    0    6    8   -0.071242   -0.005302
   10    4    0    7    8   -0.059997    0.023988
   10    4    0    8    8   -0.020570    0.008051
   10    5    0    1    1    0.044967    0.007506
   10    5    0    2    1    0.059664    0.009566
   10    5    0    3    1    0.095927    0.001541
   10    5    0    4    1    0.066418    0.006721
   10    5    0    5    1   -0.296630   -0.002572
   10    5    0    6    1    0.128526    0.014681
   10    5    0    7    1   -0.007406   -0.011183
   10    5    0    8    1    0.082011    0.017044
   10    5    0    1    2    0.053904   -0.007307
   10    5    0    2    2    0.004609   -0.015807
   10    5    0    3    2    0.012257   -0.003609
   10    5    0    4    2    0.125532    0.010479
   10    5    0    5    2   -0.131515    0.021198
   10    5    0    6    2    0.171686    0.000023
   10    5    0    7    2   -0.022095   -0.012727
   10    5    0    8    2   -0.082291    0.002283
   10    5    0    1    3    0.101350   -0.019608
   10    5    0    2    3    0.065616    0.015651
   10    5    0    3    3    0.028503   -0.000019
   10    5    0    4    3   -0.086110   -0.032909
   10    5    0    5    3    0.007419   -0.011292
   10    5    0    6    3   -0.022561    0.012485
   10    5    0    7    3    0.096201   -0.000003
   10    5    0    8    3   -0.032768   -0.036279
   10    5    0    1    4   -0.004943    0.022288
   10    5    0    2    4   -0.067011    0.007212
   10    5    0    3    4   -0.046171    0.032440
   10    5    0    4    4   -0.039675   -0.000122
   10    5    0    5    4   -0.082196    0.016935
   10    5    0    6    4   -0.082009   -0.002640
   10    5    0    7    4   -0.032781    0.036273
   10    5    0    8    4    0.000976   -0.000016
   10    5    0    1    5    0.055365    0.002552
   10    5    0    2    5    0.023232   -0.008171
   10    5    0    3    5   -0.037014   -0.030197
   10    5    0    4    5   -0.010850   -0.005851
   10    5    0    5    5   -0.033036   -0.007480
   10    5    0    6    5   -0.053380   -0.000841
   10    5    0    7    5   -0.101410   -0.019711
   10    5    0    8    5    0.005091    0.022231
   10    5    0    1    6   -0.029568    0.000034
   10    5    0    2    6   -0.213857   -0.000006
   10    5    0    3    6    0.051894   -0.002718
   10    5    0    4    6    0.118388    0.018109
   10    5    0    5    6   -0.054062    0.000526
   10    5    0    6    6    0.004752    0.015791
   10    5    0    7    6    0.066270   -0.016155
   10    5    0    8    6   -0.067106   -0.007507
   10    5    0    1    7    0.036878   -0.030100
   10    5    0    2    7    0.051677    0.002436
   10    5    0    3    7    0.123378    0.000003
   10    5    0    4    7   -0.024271   -0.017798
   10    5    0    5    7   -0.095836    0.001457
   10    5    0    6    7    0.013287    0.003984
   10    5    0    7    7    0.028510    0.000018
   10    5    0    8    7   -0.046162   -0.032442
   10    5    0    1    8    0.010837   -0.005784
   10    5    0    2    8    0.117903   -0.017517
   10    5    0    3    8   -0.024263    0.017811
   10    5    0    4    8   -0.068967    0.000011
   10    5    0    5    8   -0.066442    0.006632
   10    5    0    6    8    0.125412   -0.010039
   10    5    0    7    8   -0.086107    0.032921
   10    5    0    8    8   -0.039689    0.000115
   10    6    0    1    1    0.100092   -0.000055
   10    6    0    2    1   -0.077324    0.025041
   10    6    0    3    1    0.091419    0.022542
   10    6    0    4    1    0.014490    0.022718
   10    6    0    5    1   -0.265143   -0.002591
   10    6    0    6    1   -0.051591    0.016328
   10    6    0    7    1    0.048579    0.014888
   10    6    0    8    1    0.051212    0.023935
   10    6    0    1    2   -0.078005   -0.025003
   10    6    0    2    2    0.010533   -0.000000
   10    6    0    3    2   -0.016820   -0.004647
   10    6    0    4    2    0.047576    0.013929
   10    6    0    5    2    0.050755    0.024133
   10    6    0    6    2    0.220943    0.000016
   10    6    0    7    2    0.013261   -0.010935
   10    6    0    8    2    0.041900    0.000771
   10    6    0    1    3    0.117864   -0.018734
   10    6    0    2    3   -0.041485    0.009889
   10    6    0    3    3   -0.018785   -0.000490
   10    6    0    4    3   -0.063484   -0.017437
   10    6    0    5    3   -0.048641    0.014901
   10    6    0    6    3    0.012371    0.011160
   10    6    0    7    3   -0.035543   -0.000003
   10    6    0    8    3   -0.085899   -0.031959
   10    6    0    1    4   -0.017657   -0.019844
   10    6    0    2    4    0.081938   -0.006289
   10    6    0    3    4   -0.019989    0.016909
   10    6    0    4    4   -0.049281    0.000428
   10    6    0    5    4   -0.051307    0.023953
   10    6    0    6    4    0.041873   -0.000882
   10    6    0    7    4   -0.085913    0.031947
   10    6    0    8    4   -0.066873   -0.000018
   10    6    0    1    5    0.073999    0.002595
   10    6    0    2    5    0.003785   -0.027337
   10    6    0    3    5   -0.075648   -0.020134
   10    6    0    4    5    0.001297   -0.030125
   10    6    0    5    5    0.022075    0.000057
   10    6    0    6    5    0.079146   -0.017357
   10    6    0    7    5   -0.117852   -0.018721
   10    6    0    8    5    0.017716   -0.019790
   10    6    0    1    6   -0.006403   -0.019249
   10    6    0    2    6   -0.200735   -0.000016
   10    6    0    3    6   -0.028889   -0.005559
   10    6    0    4    6   -0.027070    0.008531
   10    6    0    5    6    0.082320    0.017194
   10    6    0    6    6    0.010687    0.000000
   10    6    0    7    6   -0.041596   -0.010077
   10    6    0    8    6    0.083235    0.006735
   10    6    0    1    7    0.075587   -0.020139
   10    6    0    2    7   -0.029486    0.005103
   10    6    0    3    7   -0.075679    0.000008
   10    6    0    4    7   -0.004742   -0.032283
   10    6    0    5    7   -0.091401    0.022559
   10    6    0    6    7   -0.017218    0.005139
   10    6    0    7    7   -0.018777    0.000488
   10    6    0    8    7   -0.019981   -0.016917
   10    6    0    1    8   -0.001412   -0.030171
   10    6    0    2    8   -0.026164   -0.008740
   10    6    0    3    8   -0.004729    0.032298
   10    6    0    4    8    0.104945    0.000017
   10    6    0    5    8   -0.014412    0.022736
   10    6    0    6    8    0.048948   -0.013935
   10    6    0    7    8   -0.063478    0.017445
   10    6    0    8    8   -0.049300   -0.000428
